 Gaussian 09, Revision D.01,
 Gaussian 09:  ES64L-G09RevD.01 24-Apr-2013

 ---------------------------------------------------------------------
 # b3lyp/6-311+g(d,p) geom=connectivity pop=(hirshfeld,chelpg,mbs,npa)
 ---------------------------------------------------------------------

 ---------
 Table9_14
 ---------
 Symbolic Z-matrix:
 Charge =  0 Multiplicity = 1

                         Standard orientation:
 ---------------------------------------------------------------------
 Center     Atomic      Atomic             Coordinates (Angstroms)
 Number     Number       Type             X           Y           Z
 ---------------------------------------------------------------------
      1          6           0        1.836758   -0.639135   -0.117373
      2          6           0        1.892586    0.756569    0.143819
      3          6           0        3.149070    1.373563    0.266209
      4          6           0        4.293517    0.605824    0.111935
      5          6           0        4.213591   -0.774200   -0.160683
      6          6           0        2.986796   -1.414613   -0.277612
      7          6           0       -0.288408    0.134877    0.019803
      8          6           0        0.539155    1.217611    0.223027
      9          1           0        3.221527    2.435472    0.474353
     10          1           0        5.268510    1.071384    0.200737
     11          1           0        5.126289   -1.347024   -0.278639
     12          1           0        2.928414   -2.478079   -0.482552
     13          1           0        0.156692   -1.883509   -0.479695
     14          1           0        0.213165    2.221221    0.447046
     15          6           0       -1.750365    0.053206    0.009242
     16          6           0       -2.522369    1.175090   -0.335501
     17          6           0       -2.419668   -1.135331    0.344392
     18          6           0       -3.911038    1.110535   -0.338212
     19          1           0       -2.025080    2.094843   -0.620108
     20          6           0       -3.810353   -1.200348    0.330804
     21          1           0       -1.853359   -2.007797    0.651575
     22          6           0       -4.563337   -0.078295   -0.009108
     23          1           0       -4.487319    1.987955   -0.609886
     24          1           0       -4.306104   -2.126915    0.598083
     25          1           0       -5.646051   -0.128359   -0.017375
     26          7           0        0.503958   -0.993046   -0.164000
 ---------------------------------------------------------------------

 SCF Done:  E(RB3LYP) =  -595.029487454     A.U. after   15 cycles

 The electronic state is 1-A.
 Alpha  occ. eigenvalues --  -14.36033 -10.21768 -10.20925 -10.20076 -10.18745
 Alpha  occ. eigenvalues --  -10.18604 -10.18519 -10.18457 -10.18356 -10.17644
 Alpha  occ. eigenvalues --  -10.17450 -10.17171 -10.17129 -10.16650 -10.16548
 Alpha  occ. eigenvalues --   -0.98829  -0.87186  -0.84513  -0.79546  -0.77463
 Alpha  occ. eigenvalues --   -0.75962  -0.73849  -0.71483  -0.64255  -0.62211
 Alpha  occ. eigenvalues --   -0.61486  -0.58654  -0.58343  -0.54905  -0.52198
 Alpha  occ. eigenvalues --   -0.49081  -0.48068  -0.46570  -0.45224  -0.44096
 Alpha  occ. eigenvalues --   -0.43701  -0.43536  -0.42714  -0.42034  -0.40452
 Alpha  occ. eigenvalues --   -0.38296  -0.36684  -0.36130  -0.35493  -0.34356
 Alpha  occ. eigenvalues --   -0.34100  -0.29186  -0.27302  -0.26782  -0.22655
 Alpha  occ. eigenvalues --   -0.20709
 Alpha virt. eigenvalues --   -0.04949  -0.02548  -0.00732  -0.00492   0.00706
 Alpha virt. eigenvalues --    0.01279   0.01329   0.02025   0.02573   0.03720
 Alpha virt. eigenvalues --    0.04125   0.04243   0.04488   0.05211   0.05846

 Mulliken charges:
               1
     1  C   -0.569847
     2  C    1.406762
     3  C   -0.667173
     4  C   -0.047103
     5  C   -0.218966
     6  C   -0.610183
     7  C   -0.357742
     8  C    0.062673
     9  H    0.116246
    10  H    0.120638
    11  H    0.121636
    12  H    0.105447
    13  H    0.260299
    14  H    0.111926
    15  C    1.074308
    16  C   -0.393196
    17  C   -0.466495
    18  C   -0.320626
    19  H    0.124687
    20  C   -0.228097
    21  H    0.114373
    22  C   -0.153046
    23  H    0.127700
    24  H    0.126026
    25  H    0.127498
    26  N    0.032253
 Sum of Mulliken charges =   0.00000

 Dipole moment (field-independent basis, Debye):
    X=             -1.5328    Y=             -1.1126    Z=             -0.3880  Tot=              1.9333
 Quadrupole moment (field-independent basis, Debye-Ang):
   XX=            -81.6919   YY=            -76.7100   ZZ=            -94.8676
   XY=             -0.5196   XZ=              0.0267   YZ=              0.6445

 ESP charges:
               1
     1  C    0.296867
     2  C    0.176965
     3  C   -0.232403
     4  C   -0.107641
     5  C   -0.070953
     6  C   -0.289101
     7  C    0.114498
     8  C   -0.370227
     9  H    0.125894
    10  H    0.085252
    11  H    0.082513
    12  H    0.138496
    13  H    0.336002
    14  H    0.163502
    15  C    0.182407
    16  C   -0.181426
    17  C   -0.189849
    18  C   -0.032503
    19  H    0.095852
    20  C   -0.043541
    21  H    0.105576
    22  C   -0.121340
    23  H    0.077832
    24  H    0.076688
    25  H    0.086523
    26  N   -0.505882
 Sum of ESP charges =   0.00000

 Summary of Natural Population Analysis:

                                       Natural Population
                Natural  -----------------------------------------------
    Atom  No    Charge         Core      Valence    Rydberg      Total
 -----------------------------------------------------------------------
      C    1    0.16230      1.99897     3.81909    0.01964     5.83770
      C    2   -0.09253      1.99901     4.07701    0.01652     6.09253
      C    3   -0.18595      1.99908     4.16992    0.01695     6.18595
      C    4   -0.22673      1.99918     4.20908    0.01848     6.22673
      C    5   -0.20721      1.99919     4.18951    0.01851     6.20721
      C    6   -0.23791      1.99907     4.22251    0.01633     6.23791
      C    7    0.15696      1.99905     3.82037    0.02362     5.84304
      C    8   -0.25874      1.99897     4.24484    0.01493     6.25874
      H    9    0.20621      0.00000     0.79208    0.00170     0.79379
      H   10    0.20446      0.00000     0.79408    0.00146     0.79554
      H   11    0.20433      0.00000     0.79422    0.00145     0.79567
      H   12    0.20696      0.00000     0.79134    0.00170     0.79304
      H   13    0.40283      0.00000     0.59349    0.00368     0.59717
      H   14    0.21895      0.00000     0.77937    0.00168     0.78105
      C   15   -0.07180      1.99877     4.05453    0.01850     6.07180
      C   16   -0.16741      1.99892     4.15269    0.01581     6.16741
      C   17   -0.18662      1.99891     4.17185    0.01586     6.18662
      C   18   -0.20330      1.99919     4.18465    0.01947     6.20330
      H   19    0.20964      0.00000     0.78834    0.00202     0.79036
      C   20   -0.20313      1.99919     4.18447    0.01947     6.20313
      H   21    0.20008      0.00000     0.79791    0.00201     0.79992
      C   22   -0.20596      1.99916     4.18905    0.01775     6.20596
      H   23    0.20773      0.00000     0.79075    0.00152     0.79227
      H   24    0.20719      0.00000     0.79127    0.00154     0.79281
      H   25    0.20735      0.00000     0.79121    0.00144     0.79265
      N   26   -0.54764      1.99926     5.53237    0.01600     7.54764
 =======================================================================
   * Total *    0.00007     29.98591    71.72599    0.28803   101.99993

 Normal termination of Gaussian 09 at Fri Jul 23 17:40:07 2021.
