 Gaussian 09, Revision D.01,
 Gaussian 09:  ES64L-G09RevD.01 24-Apr-2013

 ----------------------------------------------------------------------
 # opt freq=noraman b3lyp/6-311+g(d,p) pop=(npa,hirshfeld,chelpg,mbs) g
 eom=connectivity
 ----------------------------------------------------------------------

 ---
 tit
 ---
 Symbolic Z-matrix:
 Charge =  0 Multiplicity = 1

 SCF Done:  E(RB3LYP) =  -553.195226043     A.U. after   15 cycles
 SCF Done:  E(RB3LYP) =  -553.230793240     A.U. after   13 cycles
 SCF Done:  E(RB3LYP) =  -553.250956636     A.U. after   14 cycles
 SCF Done:  E(RB3LYP) =  -553.258659616     A.U. after   13 cycles
 SCF Done:  E(RB3LYP) =  -553.263301298     A.U. after   16 cycles
 SCF Done:  E(RB3LYP) =  -553.264876452     A.U. after   13 cycles
 SCF Done:  E(RB3LYP) =  -553.265513431     A.U. after   12 cycles
 SCF Done:  E(RB3LYP) =  -553.265549083     A.U. after   13 cycles
 SCF Done:  E(RB3LYP) =  -553.265900846     A.U. after   12 cycles
 SCF Done:  E(RB3LYP) =  -553.265941662     A.U. after   12 cycles
 SCF Done:  E(RB3LYP) =  -553.266051169     A.U. after   10 cycles
 SCF Done:  E(RB3LYP) =  -553.266069907     A.U. after   11 cycles
 SCF Done:  E(RB3LYP) =  -553.266091497     A.U. after   12 cycles
 SCF Done:  E(RB3LYP) =  -553.266096950     A.U. after   11 cycles
 SCF Done:  E(RB3LYP) =  -553.266098187     A.U. after   11 cycles
 SCF Done:  E(RB3LYP) =  -553.266098666     A.U. after   11 cycles
 SCF Done:  E(RB3LYP) =  -553.266098904     A.U. after   11 cycles
 SCF Done:  E(RB3LYP) =  -553.266099224     A.U. after   11 cycles
 SCF Done:  E(RB3LYP) =  -553.266099269     A.U. after    9 cycles
 Optimization completed.
    -- Stationary point found.
 Normal termination of Gaussian 09 at Thu Jan 18 08:54:05 2024.

 ----------------------------------------------------------------------
 #N Geom=AllCheck Guess=TCheck SCRF=Check GenChk RB3LYP/6-311+G(d,p) Fr
 eq
 ----------------------------------------------------------------------

 Structure from the checkpoint file:  "compound7.chk"
 ---
 tit
 ---
 Charge =  0 Multiplicity = 1

                         Standard orientation:
 ---------------------------------------------------------------------
 Center     Atomic      Atomic             Coordinates (Angstroms)
 Number     Number       Type             X           Y           Z
 ---------------------------------------------------------------------
      1          6           0       -1.817926   -1.029919   -0.208819
      2          6           0       -3.065328   -0.462945   -0.299778
      3          6           0       -2.927435    0.944153   -0.107380
      4          6           0       -1.597258    1.219044    0.094275
      5          7           0       -0.913903    0.004559    0.034135
      6          1           0       -3.979575   -1.003121   -0.494993
      7          1           0       -3.718262    1.679097   -0.115248
      8          6           0       -1.391983   -2.453203   -0.367660
      9          1           0       -0.630397   -2.568495   -1.146116
     10          1           0       -0.981336   -2.878920    0.554114
     11          1           0       -2.256799   -3.054361   -0.653443
     12          6           0       -0.907204    2.517372    0.356730
     13          1           0       -0.353691    2.504298    1.302314
     14          1           0       -0.195958    2.771987   -0.434261
     15          1           0       -1.651974    3.312862    0.416614
     16          6           0        0.474840   -0.156046    0.210782
     17          6           0        1.138844   -0.805075    1.274714
     18          6           0        2.478336   -0.665248    0.974182
     19          7           0        1.336025    0.343921   -0.675019
     20          7           0        2.551644    0.030665   -0.189611
     21          6           0        3.741289    0.435008   -0.917907
     22          1           0        3.768616    1.521580   -1.014130
     23          1           0        4.619417    0.097299   -0.368288
     24          1           0        3.741453   -0.012483   -1.913177
     25          1           0        0.700639   -1.286923    2.132430
     26          1           0        3.364452   -0.995676    1.492808
 ---------------------------------------------------------------------

 SCF Done:  E(RB3LYP) =  -553.266099269     A.U. after    1 cycles

 The electronic state is 1-A.
 Alpha  occ. eigenvalues --  -14.40587 -14.35036 -14.33778 -10.23510 -10.22801
 Alpha  occ. eigenvalues --  -10.22016 -10.18570 -10.18502 -10.17784 -10.16475
 Alpha  occ. eigenvalues --  -10.16013 -10.13944 -10.13846  -1.06974  -0.97771
 Alpha  occ. eigenvalues --   -0.85998  -0.80211  -0.77899  -0.76920  -0.71597
 Alpha  occ. eigenvalues --   -0.70378  -0.63441  -0.62521  -0.59975  -0.56213
 Alpha  occ. eigenvalues --   -0.55527  -0.50901  -0.49323  -0.48155  -0.45518
 Alpha  occ. eigenvalues --   -0.45289  -0.42922  -0.42698  -0.41951  -0.41445
 Alpha  occ. eigenvalues --   -0.40754  -0.40360  -0.39707  -0.37730  -0.36563
 Alpha  occ. eigenvalues --   -0.35709  -0.34939  -0.30897  -0.27140  -0.26398
 Alpha  occ. eigenvalues --   -0.22878  -0.19192
 Alpha virt. eigenvalues --   -0.01184  -0.00712   0.01072   0.01775   0.02143
 Alpha virt. eigenvalues --    0.02172   0.03109   0.03724   0.04287   0.04645
 Alpha virt. eigenvalues --    0.04893   0.05447   0.05634   0.05840   0.06447

 Mulliken charges:
               1
     1  C    0.362055
     2  C   -0.392102
     3  C   -0.245179
     4  C    0.333144
     5  N    0.497133
     6  H    0.104227
     7  H    0.104554
     8  C   -0.559129
     9  H    0.153942
    10  H    0.148059
    11  H    0.147361
    12  C   -0.651810
    13  H    0.144508
    14  H    0.162260
    15  H    0.143967
    16  C   -0.958750
    17  C    0.242252
    18  C   -0.162019
    19  N   -0.273194
    20  N    0.204378
    21  C   -0.243570
    22  H    0.172475
    23  H    0.139676
    24  H    0.174120
    25  H    0.126173
    26  H    0.125470
 Sum of Mulliken charges =   0.00000

 Dipole moment (field-independent basis, Debye):
    X=              4.3723    Y=             -0.7131    Z=              0.9783  Tot=              4.5368
 Quadrupole moment (field-independent basis, Debye-Ang):
   XX=            -65.1239   YY=            -75.0221   ZZ=            -80.1921
   XY=              0.3372   XZ=              0.0227   YZ=             -0.4244

  Exact polarizability: 174.724  -0.203 134.565   2.245  -4.312 104.627
 Approx polarizability: 243.278  -1.252 196.739   4.113 -13.795 169.846

 ESP charges:
               1
     1  C    0.084343
     2  C   -0.248291
     3  C   -0.194075
     4  C    0.007072
     5  N   -0.149218
     6  H    0.125316
     7  H    0.115466
     8  C   -0.149823
     9  H    0.040925
    10  H    0.028698
    11  H    0.069447
    12  C   -0.035231
    13  H   -0.008145
    14  H    0.033861
    15  H    0.040575
    16  C    0.607258
    17  C   -0.377137
    18  C   -0.156952
    19  N   -0.552376
    20  N    0.317209
    21  C   -0.266496
    22  H    0.128250
    23  H    0.096033
    24  H    0.120241
    25  H    0.169898
    26  H    0.153150
 Sum of ESP charges =   0.00000

 Summary of Natural Population Analysis:

                                       Natural Population
                Natural  -----------------------------------------------
    Atom  No    Charge         Core      Valence    Rydberg      Total
 -----------------------------------------------------------------------
      C    1    0.15714      1.99909     3.82468    0.01909     5.84286
      C    2   -0.28645      1.99903     4.27037    0.01705     6.28645
      C    3   -0.28923      1.99903     4.27318    0.01703     6.28923
      C    4    0.16710      1.99909     3.81456    0.01925     5.83290
      N    5   -0.44224      1.99913     5.42110    0.02200     7.44224
      H    6    0.21025      0.00000     0.78823    0.00152     0.78975
      H    7    0.21057      0.00000     0.78790    0.00153     0.78943
      C    8   -0.60255      1.99930     4.59499    0.00826     6.60255
      H    9    0.21130      0.00000     0.78685    0.00185     0.78870
      H   10    0.20424      0.00000     0.79378    0.00198     0.79576
      H   11    0.21694      0.00000     0.78181    0.00125     0.78306
      C   12   -0.60514      1.99929     4.59737    0.00847     6.60514
      H   13    0.20668      0.00000     0.79147    0.00184     0.79332
      H   14    0.21761      0.00000     0.78025    0.00214     0.78239
      H   15    0.21436      0.00000     0.78439    0.00125     0.78564
      C   16    0.32717      1.99912     3.64282    0.03089     5.67283
      C   17   -0.32025      1.99905     4.30597    0.01524     6.32025
      C   18   -0.01069      1.99918     3.99185    0.01966     6.01069
      N   19   -0.30105      1.99937     5.27849    0.02319     7.30105
      N   20   -0.20114      1.99933     5.18272    0.01909     7.20114
      C   21   -0.34501      1.99934     4.33294    0.01272     6.34501
      H   22    0.20869      0.00000     0.78972    0.00159     0.79131
      H   23    0.20056      0.00000     0.79831    0.00113     0.79944
      H   24    0.20880      0.00000     0.78965    0.00155     0.79120
      H   25    0.23034      0.00000     0.76814    0.00152     0.76966
      H   26    0.21202      0.00000     0.78638    0.00161     0.78798
 =======================================================================
   * Total *    0.00000     25.98935    67.75795    0.25270    94.00000

                      1                      2                      3
                      A                      A                      A
 Frequencies --     25.3328                61.1761                70.7475
 Red. masses --      3.5873                 1.1430                 3.3663
 Frc consts  --      0.0014                 0.0025                 0.0099
 IR Inten    --      0.3863                 0.3479                 0.3446

                      4                      5                      6
                      A                      A                      A
 Frequencies --     94.7851               140.3770               148.1621
 Red. masses --      3.5831                 1.0754                 1.6402
 Frc consts  --      0.0190                 0.0125                 0.0212
 IR Inten    --      2.4433                 0.2202                 3.6069

                      7                      8                      9
                      A                      A                      A
 Frequencies --    164.0111               195.6884               243.4107
 Red. masses --      1.5119                 2.9281                 2.9000
 Frc consts  --      0.0240                 0.0661                 0.1012
 IR Inten    --      3.4349                 4.7489                 0.5436

                     10                     11                     12
                      A                      A                      A
 Frequencies --    277.8719               307.1875               339.9431
 Red. masses --      3.0746                 3.3995                 3.7425
 Frc consts  --      0.1399                 0.1890                 0.2548
 IR Inten    --      0.2864                 2.1486                 0.5416

                     13                     14                     15
                      A                      A                      A
 Frequencies --    406.8677               455.9120               500.5939
 Red. masses --      4.5746                 3.6030                 3.2752
 Frc consts  --      0.4462                 0.4412                 0.4836
 IR Inten    --      3.9484                 3.1568                 1.7995

                     16                     17                     18
                      A                      A                      A
 Frequencies --    610.5096               626.3181               630.6437
 Red. masses --      4.0662                 3.6739                 3.5848
 Frc consts  --      0.8929                 0.8491                 0.8400
 IR Inten    --      0.8911                 1.0687                 1.1062

                     19                     20                     21
                      A                      A                      A
 Frequencies --    644.8055               702.0671               705.2700
 Red. masses --      5.0073                 4.6427                 4.6584
 Frc consts  --      1.2266                 1.3483                 1.3652
 IR Inten    --      3.2337                 1.0822                 9.3658

                     22                     23                     24
                      A                      A                      A
 Frequencies --    749.8430               766.6602               774.0611
 Red. masses --      1.7618                 1.2406                 2.1876
 Frc consts  --      0.5836                 0.4296                 0.7723
 IR Inten    --     30.0044                40.5682                36.4481

                     25                     26                     27
                      A                      A                      A
 Frequencies --    833.5294               859.3139               962.2374
 Red. masses --      1.3451                 1.3940                 4.1645
 Frc consts  --      0.5506                 0.6065                 2.2718
 IR Inten    --      0.0273                 0.0631                 4.2918

                     28                     29                     30
                      A                      A                      A
 Frequencies --    985.4636               991.4165              1015.1033
 Red. masses --      2.2577                 1.8150                 3.8746
 Frc consts  --      1.2918                 1.0511                 2.3523
 IR Inten    --      2.3942                 7.1046                 5.0464

                     31                     32                     33
                      A                      A                      A
 Frequencies --   1038.5797              1050.0486              1052.0904
 Red. masses --      1.3874                 1.5662                 2.1073
 Frc consts  --      0.8817                 1.0174                 1.3743
 IR Inten    --      7.3578                12.1355                 3.3591

                     34                     35                     36
                      A                      A                      A
 Frequencies --   1058.0894              1065.9471              1083.5948
 Red. masses --      1.4175                 1.4558                 1.2951
 Frc consts  --      0.9350                 0.9746                 0.8959
 IR Inten    --      0.2480                 1.5689                16.4501

                     37                     38                     39
                      A                      A                      A
 Frequencies --   1132.2550              1145.0127              1237.1887
 Red. masses --      2.9131                 1.3081                 1.9470
 Frc consts  --      2.2004                 1.0104                 1.7559
 IR Inten    --      3.3694                 0.0635                18.4313

                     40                     41                     42
                      A                      A                      A
 Frequencies --   1241.1937              1289.6463              1332.6014
 Red. masses --      1.6629                 4.0722                 3.6932
 Frc consts  --      1.5094                 3.9904                 3.8641
 IR Inten    --      9.0125                11.4235                 6.6004

                     43                     44                     45
                      A                      A                      A
 Frequencies --   1341.6736              1386.5886              1406.6752
 Red. masses --      7.8916                 5.2777                 3.3180
 Frc consts  --      8.3697                 5.9785                 3.8683
 IR Inten    --      3.9452                17.1157                 7.2738

                     46                     47                     48
                      A                      A                      A
 Frequencies --   1415.7674              1421.1944              1446.4221
 Red. masses --      1.2540                 1.3099                 2.5243
 Frc consts  --      1.4809                 1.5588                 3.1116
 IR Inten    --      0.5903                 4.4842                63.9565

                     49                     50                     51
                      A                      A                      A
 Frequencies --   1462.5223              1477.1431              1477.3130
 Red. masses --      1.5156                 1.0418                 1.0413
 Frc consts  --      1.9101                 1.3393                 1.3390
 IR Inten    --     29.6744                 8.7958                 6.0263

                     52                     53                     54
                      A                      A                      A
 Frequencies --   1478.8174              1494.8177              1498.8460
 Red. masses --      1.0450                 1.1018                 1.2539
 Frc consts  --      1.3464                 1.4505                 1.6597
 IR Inten    --     14.2328                10.4561                 7.6751

                     55                     56                     57
                      A                      A                      A
 Frequencies --   1517.8860              1531.7770              1556.5567
 Red. masses --      1.4678                 2.4665                 5.4159
 Frc consts  --      1.9925                 3.4097                 7.7312
 IR Inten    --      6.0575                42.8346               188.0496

                     58                     59                     60
                      A                      A                      A
 Frequencies --   1561.0500              1616.7915              3014.3546
 Red. masses --      5.5532                 5.5437                 1.0392
 Frc consts  --      7.9730                 8.5381                 5.5632
 IR Inten    --     56.2127                 4.3174                59.6478

                     61                     62                     63
                      A                      A                      A
 Frequencies --   3016.7325              3048.6271              3055.0866
 Red. masses --      1.0407                 1.0321                 1.1002
 Frc consts  --      5.5803                 5.6519                 6.0504
 IR Inten    --     30.2621                46.0740                17.8371

                     64                     65                     66
                      A                      A                      A
 Frequencies --   3064.1591              3106.1961              3107.2759
 Red. masses --      1.0968                 1.0972                 1.0988
 Frc consts  --      6.0671                 6.2373                 6.2508
 IR Inten    --     16.6782                19.0364                22.6527

                     67                     68                     69
                      A                      A                      A
 Frequencies --   3114.2790              3139.5543              3222.4065
 Red. masses --      1.1058                 1.1041                 1.0917
 Frc consts  --      6.3191                 6.4118                 6.6789
 IR Inten    --     11.0048                 8.2524                10.1673

                     70                     71                     72
                      A                      A                      A
 Frequencies --   3237.0351              3246.4001              3269.3873
 Red. masses --      1.1005                 1.0931                 1.1043
 Frc consts  --      6.7943                 6.7878                 6.9544
 IR Inten    --      5.8125                 0.9883                 0.0546

 - Thermochemistry -
 -------------------
 Temperature   298.150 Kelvin.  Pressure   1.00000 Atm.
 Atom     1 has atomic number  6 and mass  12.00000

 Molecular mass:   175.11095 amu.
 Principal axes and moments of inertia in atomic units:
                           1         2         3
     Eigenvalues --  1204.464773133.424903841.55325
           X            0.99996   0.00751  -0.00423
           Y           -0.00748   0.99995   0.00642
           Z            0.00428  -0.00639   0.99997
 This molecule is an asymmetric top.
 Rotational symmetry number  1.
 Warning -- assumption of classical behavior for rotation
           may cause significant error
 Rotational temperatures (Kelvin)      0.07191     0.02764     0.02255
 Rotational constants (GHZ):           1.49838     0.57596     0.46979
 Zero-point vibrational energy     566724.2 (Joules/Mol)
                                  135.45034 (Kcal/Mol)
 Warning -- explicit consideration of  16 degrees of freedom as
           vibrations may cause significant error
 Vibrational temperatures:     36.45    88.02   101.79   136.37   201.97
          (Kelvin)            213.17   235.98   281.55   350.21   399.80
                              441.97   489.10   585.39   655.95   720.24
                              878.39   901.13   907.35   927.73  1010.12
                             1014.72  1078.86  1103.05  1113.70  1199.26
                             1236.36  1384.44  1417.86  1426.43  1460.51
                             1494.28  1510.78  1513.72  1522.35  1533.66
                             1559.05  1629.06  1647.42  1780.04  1785.80
                             1855.51  1917.31  1930.37  1994.99  2023.89
                             2036.97  2044.78  2081.08  2104.24  2125.28
                             2125.52  2127.69  2150.71  2156.50  2183.90
                             2203.88  2239.54  2246.00  2326.20  4336.98
                             4340.40  4386.29  4395.58  4408.64  4469.12
                             4470.67  4480.75  4517.11  4636.32  4657.37
                             4670.84  4703.91

 Zero-point correction=                           0.215854 (Hartree/Particle)
 Thermal correction to Energy=                    0.228654
 Thermal correction to Enthalpy=                  0.229598
 Thermal correction to Gibbs Free Energy=         0.175551
 Sum of electronic and zero-point Energies=           -553.050245
 Sum of electronic and thermal Energies=              -553.037445
 Sum of electronic and thermal Enthalpies=            -553.036501
 Sum of electronic and thermal Free Energies=         -553.090549

                     E (Thermal)             CV                S
                      KCal/Mol        Cal/Mol-Kelvin    Cal/Mol-Kelvin
 Total                  143.483             47.053            113.753
 Electronic               0.000              0.000              0.000
 Translational            0.889              2.981             41.388
 Rotational               0.889              2.981             31.051
 Vibrational            141.705             41.091             41.314
 Vibration     1          0.593              1.985              6.165
 Vibration     2          0.597              1.973              4.419
 Vibration     3          0.598              1.968              4.132
 Vibration     4          0.603              1.953              3.559
 Vibration     5          0.615              1.913              2.799
 Vibration     6          0.618              1.905              2.696
 Vibration     7          0.623              1.887              2.503
 Vibration     8          0.636              1.846              2.173
 Vibration     9          0.659              1.774              1.778
 Vibration    10          0.679              1.714              1.547
 Vibration    11          0.697              1.660              1.377
 Vibration    12          0.720              1.596              1.212
 Vibration    13          0.772              1.455              0.938
 Vibration    14          0.814              1.348              0.778
 Vibration    15          0.856              1.249              0.657
 Vibration    16          0.970              1.010              0.432

 Optimization completed.
    -- Stationary point found.
 Normal termination of Gaussian 09 at Thu Jan 18 08:59:27 2024.
