 Gaussian 09, Revision D.01,
 Gaussian 09:  ES64L-G09RevD.01 24-Apr-2013

 ----------------------------------------------------------------------
 # opt freq=noraman b3lyp/6-311+g(d,p) pop=(npa,hirshfeld,chelpg,mbs) g
 eom=connectivity
 ----------------------------------------------------------------------

 -------------------
 Title Card Required
 -------------------
 Symbolic Z-matrix:
 Charge =  0 Multiplicity = 1

 SCF Done:  E(RB3LYP) =  -1093.19009518     A.U. after   15 cycles
 SCF Done:  E(RB3LYP) =  -1093.21654939     A.U. after   14 cycles
 SCF Done:  E(RB3LYP) =  -1093.22549535     A.U. after   16 cycles
 SCF Done:  E(RB3LYP) =  -1093.22838727     A.U. after   14 cycles
 SCF Done:  E(RB3LYP) =  -1093.23232613     A.U. after   16 cycles
 SCF Done:  E(RB3LYP) =  -1093.23532703     A.U. after   12 cycles
 SCF Done:  E(RB3LYP) =  -1093.23766772     A.U. after   14 cycles
 SCF Done:  E(RB3LYP) =  -1093.23803986     A.U. after   13 cycles
 SCF Done:  E(RB3LYP) =  -1093.23888366     A.U. after   15 cycles
 SCF Done:  E(RB3LYP) =  -1093.23722528     A.U. after   16 cycles
 SCF Done:  E(RB3LYP) =  -1093.24300703     A.U. after   16 cycles
 SCF Done:  E(RB3LYP) =  -1093.24409445     A.U. after   14 cycles
 SCF Done:  E(RB3LYP) =  -1093.24426420     A.U. after   15 cycles
 SCF Done:  E(RB3LYP) =  -1093.24429494     A.U. after   11 cycles
 SCF Done:  E(RB3LYP) =  -1093.24430233     A.U. after   11 cycles
 SCF Done:  E(RB3LYP) =  -1093.24430535     A.U. after   11 cycles
 SCF Done:  E(RB3LYP) =  -1093.24430643     A.U. after   10 cycles
 SCF Done:  E(RB3LYP) =  -1093.24430667     A.U. after    9 cycles
 SCF Done:  E(RB3LYP) =  -1093.24430671     A.U. after    9 cycles
 Optimization completed.
    -- Stationary point found.
 Normal termination of Gaussian 09 at Tue Apr 23 14:23:40 2024.

 ----------------------------------------------------------------------
 #N Geom=AllCheck Guess=TCheck SCRF=Check GenChk RB3LYP/6-311+G(d,p) Fr
 eq
 ----------------------------------------------------------------------

 Structure from the checkpoint file:  "79.chk"
 -------------------
 Title Card Required
 -------------------
 Charge =  0 Multiplicity = 1

                         Standard orientation:
 ---------------------------------------------------------------------
 Center     Atomic      Atomic             Coordinates (Angstroms)
 Number     Number       Type             X           Y           Z
 ---------------------------------------------------------------------
      1          6           0        3.250824   -1.287308   -0.000087
      2          6           0        1.879677   -1.509825    0.000179
      3          6           0        0.974754   -0.438689    0.000445
      4          6           0        1.471510    0.870856    0.000567
      5          6           0        2.846643    1.092117    0.000291
      6          6           0        3.728839    0.018783   -0.000072
      7          1           0        3.939945   -2.121956   -0.000297
      8          1           0        1.509353   -2.530129    0.000265
      9          1           0        0.786139    1.704420    0.000942
     10          1           0        3.226975    2.105714    0.000367
     11          7           0       -0.396655   -0.751541    0.000735
     12          1           0       -0.639244   -1.730724    0.000539
     13          6           0       -1.471772    0.107698    0.000304
     14          8           0       -1.411768    1.317805    0.000092
     15          8           0       -2.601472   -0.636951    0.000192
     16          6           0       -3.942500   -0.009419   -0.000222
     17          6           0       -4.132046    0.819256    1.272445
     18          1           0       -3.941979    0.206696    2.157600
     19          1           0       -3.468222    1.682273    1.289816
     20          1           0       -5.165401    1.173204    1.322135
     21          6           0       -4.131399    0.819164   -1.273032
     22          1           0       -3.940683    0.206609   -2.158052
     23          1           0       -5.164817    1.172849   -1.323349
     24          1           0       -3.467767    1.682329   -1.290087
     25          6           0       -4.871462   -1.223389   -0.000459
     26          1           0       -5.913230   -0.894389   -0.000768
     27          1           0       -4.702140   -1.838186   -0.887156
     28          1           0       -4.702644   -1.838124    0.886376
     29         17           0        5.465165    0.310465   -0.000465
 ---------------------------------------------------------------------

 SCF Done:  E(RB3LYP) =  -1093.24430671     A.U. after    1 cycles

 The electronic state is 1-A.
 Alpha  occ. eigenvalues -- -101.55200 -19.16805 -19.10976 -14.36678 -10.33612
 Alpha  occ. eigenvalues --  -10.25584 -10.23878 -10.23683 -10.19483 -10.19399
 Alpha  occ. eigenvalues --  -10.19146 -10.18415 -10.17318 -10.16763 -10.16763
 Alpha  occ. eigenvalues --   -9.46653  -7.23110  -7.22134  -7.22111  -1.11750
 Alpha  occ. eigenvalues --   -1.03074  -0.96296  -0.89367  -0.84240  -0.81987
 Alpha  occ. eigenvalues --   -0.76928  -0.74545  -0.70647  -0.70472  -0.66294
 Alpha  occ. eigenvalues --   -0.64140  -0.60497  -0.57975  -0.55021  -0.52203
 Alpha  occ. eigenvalues --   -0.49671  -0.48900  -0.47931  -0.47271  -0.45633
 Alpha  occ. eigenvalues --   -0.45494  -0.45469  -0.43965  -0.42595  -0.41384
 Alpha  occ. eigenvalues --   -0.40406  -0.39739  -0.39246  -0.38037  -0.37334
 Alpha  occ. eigenvalues --   -0.37119  -0.36934  -0.35525  -0.35019  -0.31623
 Alpha  occ. eigenvalues --   -0.31290  -0.30754  -0.28919  -0.27357  -0.22997
 Alpha virt. eigenvalues --   -0.03051  -0.02642  -0.01092   0.00204   0.01514
 Alpha virt. eigenvalues --    0.01556   0.02237   0.02539   0.02838   0.03704
 Alpha virt. eigenvalues --    0.04005   0.04735   0.05024   0.05247   0.05754

 Mulliken charges:
               1
     1  C   -0.662506
     2  C   -0.876879
     3  C   -0.193483
     4  C    0.585194
     5  C   -0.763807
     6  C    0.913012
     7  H    0.147032
     8  H    0.108115
     9  H    0.169675
    10  H    0.148099
    11  N   -0.325272
    12  H    0.300486
    13  C    0.274665
    14  O   -0.282342
    15  O    0.041356
    16  C   -0.287601
    17  C   -0.342845
    18  H    0.150045
    19  H    0.182763
    20  H    0.140832
    21  C   -0.342897
    22  H    0.150046
    23  H    0.140829
    24  H    0.182773
    25  C   -0.368077
    26  H    0.146812
    27  H    0.151600
    28  H    0.151598
    29  Cl   0.360776
 Sum of Mulliken charges =   0.00000

 Dipole moment (field-independent basis, Debye):
    X=             -3.4579    Y=             -2.2950    Z=              0.0000  Tot=              4.1502
 Quadrupole moment (field-independent basis, Debye-Ang):
   XX=            -96.8710   YY=            -92.5251   ZZ=            -99.6243
   XY=             -0.6217   XZ=              0.0023   YZ=              0.0014

  Exact polarizability: 239.671   1.765 146.572  -0.047   0.010 104.813
 Approx polarizability: 297.702   2.101 246.223  -0.018   0.003 152.729

 ESP charges:
               1
     1  C   -0.043935
     2  C   -0.291764
     3  C    0.457223
     4  C   -0.267219
     5  C   -0.044984
     6  C    0.057045
     7  H    0.103697
     8  H    0.139429
     9  H    0.162923
    10  H    0.104556
    11  N   -0.795273
    12  H    0.392705
    13  C    1.011212
    14  O   -0.596190
    15  O   -0.672383
    16  C    0.839563
    17  C   -0.359650
    18  H    0.067783
    19  H    0.088800
    20  H    0.062593
    21  C   -0.359872
    22  H    0.067900
    23  H    0.062679
    24  H    0.088768
    25  C   -0.320525
    26  H    0.052632
    27  H    0.073227
    28  H    0.073287
    29  Cl  -0.154228
 Sum of ESP charges =   0.00000

 Summary of Natural Population Analysis:

                                       Natural Population
                Natural  -----------------------------------------------
    Atom  No    Charge         Core      Valence    Rydberg      Total
 -----------------------------------------------------------------------
      C    1   -0.21277      1.99897     4.19490    0.01890     6.21277
      C    2   -0.22139      1.99908     4.20618    0.01613     6.22139
      C    3    0.15931      1.99897     3.82208    0.01965     5.84069
      C    4   -0.22111      1.99907     4.20595    0.01609     6.22111
      C    5   -0.20569      1.99898     4.18835    0.01837     6.20569
      C    6   -0.05760      1.99855     4.03594    0.02311     6.05760
      H    7    0.22382      0.00000     0.77448    0.00170     0.77618
      H    8    0.20527      0.00000     0.79276    0.00197     0.79473
      H    9    0.25091      0.00000     0.74718    0.00191     0.74909
      H   10    0.22378      0.00000     0.77457    0.00165     0.77622
      N   11   -0.61641      1.99926     5.60248    0.01467     7.61641
      H   12    0.40482      0.00000     0.59319    0.00199     0.59518
      C   13    0.93264      1.99943     3.01817    0.04976     5.06736
      O   14   -0.64796      1.99973     6.63757    0.01066     8.64796
      O   15   -0.60739      1.99970     6.58846    0.01923     8.60739
      C   16    0.27556      1.99911     3.70436    0.02097     5.72444
      C   17   -0.60622      1.99923     4.59555    0.01144     6.60622
      H   18    0.20654      0.00000     0.79213    0.00133     0.79346
      H   19    0.23104      0.00000     0.76755    0.00141     0.76896
      H   20    0.20733      0.00000     0.79153    0.00114     0.79267
      C   21   -0.60623      1.99923     4.59556    0.01144     6.60623
      H   22    0.20654      0.00000     0.79213    0.00133     0.79346
      H   23    0.20733      0.00000     0.79153    0.00114     0.79267
      H   24    0.23105      0.00000     0.76754    0.00141     0.76895
      C   25   -0.58180      1.99924     4.57042    0.01214     6.58180
      H   26    0.20666      0.00000     0.79228    0.00107     0.79334
      H   27    0.20911      0.00000     0.78951    0.00138     0.79089
      H   28    0.20911      0.00000     0.78951    0.00138     0.79089
     Cl   29   -0.00623      9.99962     6.98651    0.02010    17.00623
 =======================================================================
   * Total *    0.00000     37.98818    81.70838    0.30344   120.00000

                      1                      2                      3
                      A                      A                      A
 Frequencies --     28.5498                35.9386                67.8919
 Red. masses --      4.9040                 3.7502                 6.0811
 Frc consts  --      0.0024                 0.0029                 0.0165
 IR Inten    --      0.2104                 0.1039                 4.2356

                      4                      5                      6
                      A                      A                      A
 Frequencies --     79.2857               108.6454               145.7763
 Red. masses --      5.4031                 3.9822                 6.6945
 Frc consts  --      0.0200                 0.0277                 0.0838
 IR Inten    --      0.0789                 1.0023                 0.0337

                      7                      8                      9
                      A                      A                      A
 Frequencies --    191.1361               201.5880               213.9869
 Red. masses --      4.9503                 1.0873                 5.0916
 Frc consts  --      0.1066                 0.0260                 0.1374
 IR Inten    --      5.4422                 0.1461                 1.0919

                     10                     11                     12
                      A                      A                      A
 Frequencies --    247.2591               269.2414               281.7959
 Red. masses --      1.0698                 1.0606                 4.9597
 Frc consts  --      0.0385                 0.0453                 0.2320
 IR Inten    --      0.0027                 0.0756                 3.1102

                     13                     14                     15
                      A                      A                      A
 Frequencies --    331.7336               331.9623               348.4697
 Red. masses --      3.5999                 6.2034                 2.5816
 Frc consts  --      0.2334                 0.4028                 0.1847
 IR Inten    --     12.0349                 0.2353                 1.0370

                     16                     17                     18
                      A                      A                      A
 Frequencies --    372.3043               410.5146               419.9907
 Red. masses --      4.6000                 4.8603                 3.0787
 Frc consts  --      0.3757                 0.4826                 0.3200
 IR Inten    --      0.3483                13.3853                 0.0914

                     19                     20                     21
                      A                      A                      A
 Frequencies --    432.4129               456.1653               494.4956
 Red. masses --      2.8730                 2.8876                 3.3020
 Frc consts  --      0.3165                 0.3540                 0.4757
 IR Inten    --      4.0713                 2.9722                 2.2458

                     22                     23                     24
                      A                      A                      A
 Frequencies --    515.9244               556.3683               643.4525
 Red. masses --      2.6391                 1.1119                 7.1309
 Frc consts  --      0.4139                 0.2028                 1.7395
 IR Inten    --      9.9435                74.8442                 2.6329

                     25                     26                     27
                      A                      A                      A
 Frequencies --    667.4366               718.9730               759.6054
 Red. masses --      6.0322                 3.7151                 5.2744
 Frc consts  --      1.5832                 1.1315                 1.7931
 IR Inten    --     34.1481                 1.6855                 3.2888

                     28                     29                     30
                      A                      A                      A
 Frequencies --    769.7347               776.5280               818.1048
 Red. masses --     11.3096                 6.9321                 1.3819
 Frc consts  --      3.9480                 2.4628                 0.5449
 IR Inten    --     17.6337                 2.9602                21.4568

                     31                     32                     33
                      A                      A                      A
 Frequencies --    832.6246               850.3139               906.2743
 Red. masses --      3.5707                 1.4385                 5.0963
 Frc consts  --      1.4585                 0.6128                 2.4662
 IR Inten    --     13.6328                41.0074                19.5641

                     34                     35                     36
                      A                      A                      A
 Frequencies --    924.5722               927.8376               947.7474
 Red. masses --      1.6428                 1.6437                 1.3298
 Frc consts  --      0.8274                 0.8337                 0.7038
 IR Inten    --      0.0213                 0.2040                 0.0041

                     37                     38                     39
                      A                      A                      A
 Frequencies --    970.2461               985.2117              1024.3248
 Red. masses --      1.2013                 1.3156                 3.8207
 Frc consts  --      0.6663                 0.7524                 2.3619
 IR Inten    --      0.0781                 0.3826                33.8579

                     40                     41                     42
                      A                      A                      A
 Frequencies --   1042.7974              1050.8353              1067.9266
 Red. masses --      2.4475                 1.4099                 2.3666
 Frc consts  --      1.5681                 0.9173                 1.5902
 IR Inten    --     57.9066                 0.6478                85.4377

                     43                     44                     45
                      A                      A                      A
 Frequencies --   1103.6780              1140.6668              1178.8398
 Red. masses --      2.8303                 1.3308                 2.4484
 Frc consts  --      2.0313                 1.0202                 2.0046
 IR Inten    --    119.2592                32.7719               782.1304

                     46                     47                     48
                      A                      A                      A
 Frequencies --   1203.2759              1238.2718              1265.6626
 Red. masses --      1.1462                 2.3828                 2.7534
 Frc consts  --      0.9778                 2.1526                 2.5987
 IR Inten    --      2.9784               193.5370                15.6144

                     49                     50                     51
                      A                      A                      A
 Frequencies --   1270.5498              1281.8148              1322.3427
 Red. masses --      3.4462                 2.9307                 2.0598
 Frc consts  --      3.2778                 2.8371                 2.1220
 IR Inten    --     12.4592                 8.5462                 6.7866

                     52                     53                     54
                      A                      A                      A
 Frequencies --   1335.5847              1400.5990              1402.0768
 Red. masses --      2.4055                 1.2687                 1.2799
 Frc consts  --      2.5281                 1.4664                 1.4824
 IR Inten    --    109.0790                21.4567                21.4041

                     55                     56                     57
                      A                      A                      A
 Frequencies --   1427.6101              1428.7669              1470.7843
 Red. masses --      2.0153                 1.5251                 1.0451
 Frc consts  --      2.4199                 1.8343                 1.3321
 IR Inten    --    135.2235                 3.5161                 0.2490

                     58                     59                     60
                      A                      A                      A
 Frequencies --   1490.3834              1491.3917              1496.9237
 Red. masses --      1.0460                 1.0499                 1.0655
 Frc consts  --      1.3689                 1.3759                 1.4067
 IR Inten    --      0.9710                 0.9865                18.5547

                     61                     62                     63
                      A                      A                      A
 Frequencies --   1504.1648              1521.6619              1525.8060
 Red. masses --      1.0533                 2.1443                 1.0773
 Frc consts  --      1.4041                 2.9253                 1.4778
 IR Inten    --      2.5661                44.7371                 5.7170

                     64                     65                     66
                      A                      A                      A
 Frequencies --   1546.9456              1624.7078              1638.3580
 Red. masses --      2.3202                 4.8070                 5.7198
 Frc consts  --      3.2713                 7.4762                 9.0458
 IR Inten    --    745.6364                61.1632                35.6384

                     67                     68                     69
                      A                      A                      A
 Frequencies --   1774.6628              3034.9489              3035.1097
 Red. masses --      9.8768                 1.0354                 1.0376
 Frc consts  --     18.3273                 5.6188                 5.6315
 IR Inten    --    256.8866                 8.6842                23.9197

                     70                     71                     72
                      A                      A                      A
 Frequencies --   3043.0639              3094.5510              3096.7612
 Red. masses --      1.0374                 1.1019                 1.1017
 Frc consts  --      5.6600                 6.2170                 6.2250
 IR Inten    --     24.8315                 7.4901                18.7474

                     73                     74                     75
                      A                      A                      A
 Frequencies --   3110.0411              3111.0856              3136.7418
 Red. masses --      1.1029                 1.1018                 1.1000
 Frc consts  --      6.2850                 6.2830                 6.3767
 IR Inten    --     29.0977                45.2045                 0.5394

                     76                     77                     78
                      A                      A                      A
 Frequencies --   3139.7602              3160.9561              3198.2391
 Red. masses --      1.0994                 1.0894                 1.0912
 Frc consts  --      6.3853                 6.4131                 6.5764
 IR Inten    --     13.8009                12.1623                 1.6190

                     79                     80                     81
                      A                      A                      A
 Frequencies --   3202.0286              3240.8927              3626.4194
 Red. masses --      1.0935                 1.0923                 1.0765
 Frc consts  --      6.6055                 6.7597                 8.3413
 IR Inten    --      1.9085                 6.3570                36.2897

 - Thermochemistry -
 -------------------
 Temperature   298.150 Kelvin.  Pressure   1.00000 Atm.
 Atom     1 has atomic number  6 and mass  12.00000

 Molecular mass:   227.07131 amu.
 Principal axes and moments of inertia in atomic units:
                           1         2         3
     Eigenvalues --   882.07703********************
           X            1.00000  -0.00277   0.00001
           Y            0.00277   1.00000   0.00002
           Z           -0.00001  -0.00002   1.00000
 This molecule is an asymmetric top.
 Rotational symmetry number  1.
 Warning -- assumption of classical behavior for rotation
           may cause significant error
 Rotational temperatures (Kelvin)      0.09819     0.00856     0.00817
 Rotational constants (GHZ):           2.04601     0.17833     0.17031
 Zero-point vibrational energy     613338.0 (Joules/Mol)
                                  146.59131 (Kcal/Mol)
 Warning -- explicit consideration of  23 degrees of freedom as
           vibrations may cause significant error
 Vibrational temperatures:     41.08    51.71    97.68   114.07   156.32
          (Kelvin)            209.74   275.00   290.04   307.88   355.75
                              387.38   405.44   477.29   477.62   501.37
                              535.66   590.64   604.27   622.14   656.32
                              711.47   742.30   800.49   925.78   960.29
                             1034.44  1092.90  1107.48  1117.25  1177.07
                             1197.96  1223.41  1303.92  1330.25  1334.95
                             1363.60  1395.97  1417.50  1473.77  1500.35
                             1511.92  1536.51  1587.94  1641.16  1696.09
                             1731.24  1781.59  1821.00  1828.04  1844.24
                             1902.55  1921.61  2015.15  2017.27  2054.01
                             2055.67  2116.13  2144.33  2145.78  2153.74
                             2164.15  2189.33  2195.29  2225.71  2337.59
                             2357.23  2553.34  4366.61  4366.84  4378.28
                             4452.36  4455.54  4474.65  4476.15  4513.07
                             4517.41  4547.91  4601.55  4607.00  4662.92
                             5217.60

 Zero-point correction=                           0.233608 (Hartree/Particle)
 Thermal correction to Energy=                    0.248878
 Thermal correction to Enthalpy=                  0.249822
 Thermal correction to Gibbs Free Energy=         0.190107
 Sum of electronic and zero-point Energies=          -1093.010699
 Sum of electronic and thermal Energies=             -1092.995429
 Sum of electronic and thermal Enthalpies=           -1092.994484
 Sum of electronic and thermal Free Energies=        -1093.054200

                     E (Thermal)             CV                S
                      KCal/Mol        Cal/Mol-Kelvin    Cal/Mol-Kelvin
 Total                  156.173             57.488            125.681
 Electronic               0.000              0.000              0.000
 Translational            0.889              2.981             42.163
 Rotational               0.889              2.981             32.914
 Vibrational            154.396             51.526             50.605
 Vibration     1          0.593              1.984              5.928
 Vibration     2          0.594              1.982              5.471
 Vibration     3          0.598              1.970              4.214
 Vibration     4          0.600              1.963              3.908
 Vibration     5          0.606              1.942              3.293
 Vibration     6          0.617              1.907              2.727
 Vibration     7          0.634              1.852              2.217
 Vibration     8          0.638              1.838              2.119
 Vibration     9          0.644              1.820              2.009
 Vibration    10          0.661              1.767              1.750
 Vibration    11          0.674              1.730              1.601
 Vibration    12          0.681              1.707              1.523
 Vibration    13          0.714              1.612              1.252
 Vibration    14          0.714              1.612              1.251
 Vibration    15          0.726              1.578              1.173
 Vibration    16          0.744              1.529              1.070
 Vibration    17          0.775              1.447              0.925
 Vibration    18          0.783              1.427              0.892
 Vibration    19          0.793              1.400              0.851
 Vibration    20          0.814              1.347              0.777
 Vibration    21          0.850              1.262              0.672
 Vibration    22          0.871              1.215              0.619
 Vibration    23          0.912              1.126              0.531

 Optimization completed.
    -- Stationary point found.
 Normal termination of Gaussian 09 at Tue Apr 23 14:33:25 2024.
