 Gaussian 09, Revision D.01,
 Gaussian 09:  ES64L-G09RevD.01 24-Apr-2013

 ----------------------------------------------------------------------
 # opt freq=noraman b3lyp/6-311+g(d,p) pop=(npa,hirshfeld,chelpg,mbs) g
 eom=connectivity
 ----------------------------------------------------------------------

 -------------------
 Title Card Required
 -------------------
 Symbolic Z-matrix:
 Charge =  0 Multiplicity = 1

 SCF Done:  E(RB3LYP) =  -744.885885380     A.U. after   15 cycles
 SCF Done:  E(RB3LYP) =  -745.007691612     A.U. after   13 cycles
 SCF Done:  E(RB3LYP) =  -745.087218065     A.U. after   15 cycles
 SCF Done:  E(RB3LYP) =  -745.095286192     A.U. after   13 cycles
 SCF Done:  E(RB3LYP) =  -745.096597356     A.U. after   12 cycles
 SCF Done:  E(RB3LYP) =  -745.096696621     A.U. after   12 cycles
 SCF Done:  E(RB3LYP) =  -745.094053256     A.U. after   14 cycles
 SCF Done:  E(RB3LYP) =  -745.096716993     A.U. after    9 cycles
 SCF Done:  E(RB3LYP) =  -745.096734577     A.U. after   11 cycles
 SCF Done:  E(RB3LYP) =  -745.096735387     A.U. after    9 cycles
 SCF Done:  E(RB3LYP) =  -745.096735424     A.U. after   10 cycles
 SCF Done:  E(RB3LYP) =  -745.096735532     A.U. after    9 cycles
 Optimization completed.
    -- Stationary point found.
 Normal termination of Gaussian 09 at Thu Feb  2 15:38:50 2023.

 ----------------------------------------------------------------------
 #N Geom=AllCheck Guess=TCheck SCRF=Check GenChk RB3LYP/6-311+G(d,p) Fr
 eq
 ----------------------------------------------------------------------

 Structure from the checkpoint file:  "regiodevergent1g_Ishiyana.chk"
 -------------------
 Title Card Required
 -------------------
 Charge =  0 Multiplicity = 1

                         Standard orientation:
 ---------------------------------------------------------------------
 Center     Atomic      Atomic             Coordinates (Angstroms)
 Number     Number       Type             X           Y           Z
 ---------------------------------------------------------------------
      1          6           0        1.905942    0.152942    0.000006
      2          6           0        1.371129    1.418830   -0.000061
      3          6           0       -0.046161    1.427810   -0.000073
      4          6           0       -0.597680    0.166751   -0.000028
      5          1           0        1.981143    2.313500   -0.000095
      6          1           0       -0.638583    2.333518   -0.000117
      7          6           0        3.354380   -0.230426    0.000030
      8          1           0        3.614604   -0.822736    0.882123
      9          1           0        3.614636   -0.822718   -0.882066
     10          1           0        3.976587    0.666529    0.000050
     11          6           0       -2.008973   -0.245683   -0.000019
     12          8           0       -2.321231   -1.425108   -0.000132
     13          6           0       -3.061208    0.849473    0.000123
     14          1           0       -2.959041    1.486430    0.883241
     15          1           0       -2.959078    1.486625   -0.882857
     16          1           0       -4.046692    0.386398    0.000096
     17         16           0        0.655106   -1.054054    0.000051
 ---------------------------------------------------------------------

 SCF Done:  E(RB3LYP) =  -745.096735532     A.U. after    1 cycles

 The electronic state is 1-A.
 Alpha  occ. eigenvalues --  -88.88419 -19.11143 -10.26945 -10.22606 -10.21162
 Alpha  occ. eigenvalues --  -10.19851 -10.19220 -10.18843 -10.17857  -7.97025
 Alpha  occ. eigenvalues --   -5.93307  -5.92935  -5.92632  -1.04623  -0.89847
 Alpha  occ. eigenvalues --   -0.79279  -0.75279  -0.75039  -0.69650  -0.61587
 Alpha  occ. eigenvalues --   -0.55417  -0.53739  -0.49843  -0.45614  -0.45421
 Alpha  occ. eigenvalues --   -0.44343  -0.44249  -0.43415  -0.40100  -0.39741
 Alpha  occ. eigenvalues --   -0.38862  -0.37841  -0.35859  -0.35322  -0.26786
 Alpha  occ. eigenvalues --   -0.26162  -0.24854
 Alpha virt. eigenvalues --   -0.07264  -0.00594   0.00332   0.00576   0.01508
 Alpha virt. eigenvalues --    0.02294   0.03342   0.04029   0.04592   0.04742
 Alpha virt. eigenvalues --    0.05430   0.05722   0.06152   0.06551   0.07814

 Mulliken charges:
               1
     1  C    0.359388
     2  C   -0.667007
     3  C    0.174632
     4  C    0.171459
     5  H    0.127304
     6  H    0.135222
     7  C   -0.261875
     8  H    0.164397
     9  H    0.164403
    10  H    0.150575
    11  C    0.153446
    12  O   -0.290415
    13  C   -0.577238
    14  H    0.159599
    15  H    0.159588
    16  H    0.176358
    17  S   -0.299837
 Sum of Mulliken charges =   0.00000

 Dipole moment (field-independent basis, Debye):
    X=              2.4186    Y=              3.3994    Z=              0.0003  Tot=              4.1720
 Quadrupole moment (field-independent basis, Debye-Ang):
   XX=            -55.0776   YY=            -62.1251   ZZ=            -62.6018
   XY=             -7.6377   XZ=             -0.0007   YZ=             -0.0007

  Exact polarizability: 143.104   2.519 108.931   0.001   0.000  63.984
 Approx polarizability: 203.891  16.102 200.209   0.001  -0.001  99.201

 ESP charges:
               1
     1  C    0.105114
     2  C   -0.215344
     3  C   -0.097261
     4  C   -0.159726
     5  H    0.135350
     6  H    0.126042
     7  C   -0.128188
     8  H    0.066991
     9  H    0.067010
    10  H    0.049312
    11  C    0.621081
    12  O   -0.523454
    13  C   -0.265725
    14  H    0.064796
    15  H    0.064814
    16  H    0.083193
    17  S    0.005994
 Sum of ESP charges =   0.00000

 Summary of Natural Population Analysis:

                                       Natural Population
                Natural  -----------------------------------------------
    Atom  No    Charge         Core      Valence    Rydberg      Total
 -----------------------------------------------------------------------
      C    1   -0.16840      1.99906     4.14706    0.02228     6.16840
      C    2   -0.27210      1.99895     4.25452    0.01862     6.27210
      C    3   -0.19727      1.99901     4.18113    0.01713     6.19727
      C    4   -0.30246      1.99890     4.28073    0.02282     6.30246
      H    5    0.21895      0.00000     0.77934    0.00171     0.78105
      H    6    0.22127      0.00000     0.77705    0.00168     0.77873
      C    7   -0.60522      1.99925     4.59405    0.01191     6.60522
      H    8    0.22119      0.00000     0.77744    0.00137     0.77881
      H    9    0.22119      0.00000     0.77744    0.00137     0.77881
      H   10    0.21816      0.00000     0.78051    0.00133     0.78184
      C   11    0.52094      1.99919     3.43971    0.04016     5.47906
      O   12   -0.56157      1.99976     6.54846    0.01334     8.56157
      C   13   -0.65991      1.99929     4.65217    0.00845     6.65991
      H   14    0.22014      0.00000     0.77826    0.00160     0.77986
      H   15    0.22014      0.00000     0.77827    0.00160     0.77986
      H   16    0.22924      0.00000     0.76878    0.00197     0.77076
      S   17    0.47569      9.99878     5.48365    0.04188    15.52431
 =======================================================================
   * Total *    0.00000     25.99219    47.79856    0.20925    74.00000

                      1                      2                      3
                      A                      A                      A
 Frequencies --     65.2226                75.1781                98.7310
 Red. masses --      1.7083                 1.2263                 1.3033
 Frc consts  --      0.0043                 0.0041                 0.0075
 IR Inten    --      3.0776                 0.0805                 0.4991

                      4                      5                      6
                      A                      A                      A
 Frequencies --    113.2275               154.0767               265.3065
 Red. masses --      5.1970                 4.6982                 3.8357
 Frc consts  --      0.0393                 0.0657                 0.1591
 IR Inten    --      0.0247                 5.4363                 1.2628

                      7                      8                      9
                      A                      A                      A
 Frequencies --    306.4500               330.1461               454.5933
 Red. masses --      3.0336                 4.7228                 5.9474
 Frc consts  --      0.1679                 0.3033                 0.7241
 IR Inten    --      1.7142                 0.6874                 0.3680

                     10                     11                     12
                      A                      A                      A
 Frequencies --    465.9814               570.4650               575.2856
 Red. masses --      4.4172                 2.9553                 4.4523
 Frc consts  --      0.5651                 0.5666                 0.8682
 IR Inten    --      6.0669                 1.6328                21.8913

                     13                     14                     15
                      A                      A                      A
 Frequencies --    615.7587               642.4194               684.7739
 Red. masses --      2.7839                 3.9330                 6.7029
 Frc consts  --      0.6219                 0.9563                 1.8519
 IR Inten    --      7.3296                 5.1875                 2.5603

                     16                     17                     18
                      A                      A                      A
 Frequencies --    747.1029               809.6968               900.9207
 Red. masses --      6.7121                 1.2302                 1.4048
 Frc consts  --      2.2073                 0.4752                 0.6718
 IR Inten    --      1.2775                40.3100                 0.2556

                     19                     20                     21
                      A                      A                      A
 Frequencies --    920.5012               989.1546              1039.6005
 Red. masses --      3.1823                 1.6187                 1.7957
 Frc consts  --      1.5887                 0.9331                 1.1435
 IR Inten    --     33.6729                13.2784                 2.4623

                     22                     23                     24
                      A                      A                      A
 Frequencies --   1045.0596              1055.8126              1088.8894
 Red. masses --      1.7801                 1.4304                 1.4882
 Frc consts  --      1.1454                 0.9395                 1.0396
 IR Inten    --     19.1036                 0.8656                16.5304

                     25                     26                     27
                      A                      A                      A
 Frequencies --   1177.0326              1244.2702              1288.4576
 Red. masses --      4.1828                 1.5483                 3.7274
 Frc consts  --      3.4142                 1.4123                 3.6458
 IR Inten    --     12.6495                 0.0991               194.2355

                     28                     29                     30
                      A                      A                      A
 Frequencies --   1358.8448              1384.4672              1417.2781
 Red. masses --      3.0544                 1.3294                 1.2378
 Frc consts  --      3.3229                 1.5013                 1.4650
 IR Inten    --      7.9925                36.0765                 0.3064

                     31                     32                     33
                      A                      A                      A
 Frequencies --   1471.2433              1478.0449              1479.2379
 Red. masses --      1.0612                 1.0468                 1.0409
 Frc consts  --      1.3533                 1.3474                 1.3420
 IR Inten    --     13.1865                14.9977                 6.6314

                     34                     35                     36
                      A                      A                      A
 Frequencies --   1484.3654              1502.8330              1578.0380
 Red. masses --      1.6275                 2.1942                 4.7931
 Frc consts  --      2.1127                 2.9198                 7.0324
 IR Inten    --     66.8940               109.2855                 4.1189

                     37                     38                     39
                      A                      A                      A
 Frequencies --   1720.7029              3028.1022              3035.6132
 Red. masses --     10.6455                 1.0360                 1.0367
 Frc consts  --     18.5707                 5.5971                 5.6288
 IR Inten    --    284.5018                25.2884                 3.4571

                     40                     41                     42
                      A                      A                      A
 Frequencies --   3078.2134              3094.8708              3107.1920
 Red. masses --      1.1008                 1.0998                 1.1008
 Frc consts  --      6.1456                 6.2065                 6.2618
 IR Inten    --      9.4738                 8.0410                11.6742

                     43                     44                     45
                      A                      A                      A
 Frequencies --   3142.7278              3190.5771              3207.8339
 Red. masses --      1.1016                 1.0900                 1.0966
 Frc consts  --      6.4102                 6.5373                 6.6485
 IR Inten    --      9.7562                 8.5538                 3.5263

 - Thermochemistry -
 -------------------
 Temperature   298.150 Kelvin.  Pressure   1.00000 Atm.
 Atom     1 has atomic number  6 and mass  12.00000

 Molecular mass:   140.02959 amu.
 Principal axes and moments of inertia in atomic units:
                           1         2         3
     Eigenvalues --   525.273131965.600942468.44698
           X            0.99967  -0.02569   0.00000
           Y            0.02569   0.99967   0.00000
           Z            0.00000   0.00000   1.00000
 This molecule is an asymmetric top.
 Rotational symmetry number  1.
 Warning -- assumption of classical behavior for rotation
           may cause significant error
 Rotational temperatures (Kelvin)      0.16489     0.04406     0.03509
 Rotational constants (GHZ):           3.43581     0.91816     0.73112
 Zero-point vibrational energy     343832.5 (Joules/Mol)
                                   82.17793 (Kcal/Mol)
 Warning -- explicit consideration of  13 degrees of freedom as
           vibrations may cause significant error
 Vibrational temperatures:     93.84   108.16   142.05   162.91   221.68
          (Kelvin)            381.72   440.91   475.01   654.06   670.44
                              820.77   827.71   885.94   924.30   985.24
                             1074.91  1164.97  1296.22  1324.39  1423.17
                             1495.75  1503.61  1519.08  1566.67  1693.49
                             1790.22  1853.80  1955.07  1991.94  2039.14
                             2116.79  2126.57  2128.29  2135.67  2162.24
                             2270.44  2475.70  4356.76  4367.56  4428.86
                             4452.82  4470.55  4521.68  4590.52  4615.35

 Zero-point correction=                           0.130959 (Hartree/Particle)
 Thermal correction to Energy=                    0.140523
 Thermal correction to Enthalpy=                  0.141467
 Thermal correction to Gibbs Free Energy=         0.095404
 Sum of electronic and zero-point Energies=           -744.965777
 Sum of electronic and thermal Energies=              -744.956212
 Sum of electronic and thermal Enthalpies=            -744.955268
 Sum of electronic and thermal Free Energies=         -745.001332

                     E (Thermal)             CV                S
                      KCal/Mol        Cal/Mol-Kelvin    Cal/Mol-Kelvin
 Total                   88.180             33.742             96.949
 Electronic               0.000              0.000              0.000
 Translational            0.889              2.981             40.722
 Rotational               0.889              2.981             29.323
 Vibrational             86.402             27.781             26.905
 Vibration     1          0.597              1.971              4.293
 Vibration     2          0.599              1.966              4.013
 Vibration     3          0.604              1.950              3.479
 Vibration     4          0.607              1.938              3.213
 Vibration     5          0.620              1.898              2.621
 Vibration     6          0.671              1.737              1.627
 Vibration     7          0.697              1.661              1.381
 Vibration     8          0.713              1.615              1.259
 Vibration     9          0.813              1.351              0.782
 Vibration    10          0.823              1.326              0.749
 Vibration    11          0.927              1.095              0.503
 Vibration    12          0.932              1.085              0.494
 Vibration    13          0.975              0.999              0.423

 Optimization completed.
    -- Stationary point found.
 Normal termination of Gaussian 09 at Thu Feb  2 15:43:05 2023.
