 Gaussian 09, Revision D.01,
 Gaussian 09:  ES64L-G09RevD.01 24-Apr-2013

 ----------------------------------------------------------------------
 # opt=rcfc freq b3lyp/6-311+g(d,p) geom=allcheck guess=read pop=(hirsh
 feld,mbs,npa)
 ----------------------------------------------------------------------

 Structure from the checkpoint file:  "Table3_4_fixed.chk"
 --------
 Table3_4
 --------
 Charge =  0 Multiplicity = 1

 SCF Done:  E(RB3LYP) =  -3143.00148220     A.U. after    1 cycles
 SCF Done:  E(RB3LYP) =  -3143.00148223     A.U. after    9 cycles
 Optimization completed.
    -- Stationary point found.
 Normal termination of Gaussian 09 at Mon Aug 26 15:35:14 2024.

 ----------------------------------------------------------------------
 #N Geom=AllCheck Guess=TCheck SCRF=Check GenChk RB3LYP/6-311+G(d,p) Fr
 eq
 ----------------------------------------------------------------------

 Structure from the checkpoint file:  "Table3_4_fixed.chk"
 --------
 Table3_4
 --------
 Charge =  0 Multiplicity = 1

                         Standard orientation:
 ---------------------------------------------------------------------
 Center     Atomic      Atomic             Coordinates (Angstroms)
 Number     Number       Type             X           Y           Z
 ---------------------------------------------------------------------
      1          6           0        1.137632    0.354084   -0.003338
      2          6           0        1.118244    1.745975    0.011232
      3          6           0       -0.108627    2.406306    0.002824
      4          6           0       -1.299876    1.686914   -0.018873
      5          6           0       -1.258309    0.293191   -0.034655
      6          6           0       -0.039274   -0.385797   -0.025149
      7          1           0        2.045009    2.304571    0.026036
      8          1           0       -0.131658    3.489558    0.010739
      9          1           0       -2.251818    2.201565   -0.031752
     10          1           0       -0.010817   -1.466719   -0.042163
     11          6           0       -2.542539   -0.494116   -0.003602
     12          9           0       -3.557222    0.165151   -0.605055
     13          9           0       -2.943559   -0.746355    1.267901
     14          9           0       -2.423938   -1.692213   -0.616200
     15         35           0        2.817950   -0.563073    0.001334
 ---------------------------------------------------------------------

 SCF Done:  E(RB3LYP) =  -3143.00148223     A.U. after    1 cycles

 The electronic state is 1-A.
 Alpha  occ. eigenvalues -- -482.84640 -62.49924 -56.31964 -56.31570 -56.31557
 Alpha  occ. eigenvalues --  -24.72479 -24.72478 -24.71996 -10.44337 -10.25902
 Alpha  occ. eigenvalues --  -10.22944 -10.21892 -10.21550 -10.21398 -10.21288
 Alpha  occ. eigenvalues --   -8.70892  -6.54048  -6.52734  -6.52704  -2.65138
 Alpha  occ. eigenvalues --   -2.64763  -2.64744  -2.63698  -2.63697  -1.32997
 Alpha  occ. eigenvalues --   -1.24376  -1.23851  -0.91117  -0.83873  -0.80749
 Alpha  occ. eigenvalues --   -0.75975  -0.72568  -0.65617  -0.64307  -0.60779
 Alpha  occ. eigenvalues --   -0.60465  -0.58093  -0.53473  -0.50450  -0.48792
 Alpha  occ. eigenvalues --   -0.48291  -0.47638  -0.45406  -0.44968  -0.43990
 Alpha  occ. eigenvalues --   -0.43302  -0.42606  -0.41576  -0.38964  -0.38335
 Alpha  occ. eigenvalues --   -0.33931  -0.30916  -0.29738  -0.27168
 Alpha virt. eigenvalues --   -0.06111  -0.05028  -0.03149  -0.00563   0.01177
 Alpha virt. eigenvalues --    0.01843   0.03611   0.03879   0.04056   0.04365
 Alpha virt. eigenvalues --    0.05522   0.06684   0.07229   0.07316   0.08586

 Mulliken charges:
               1
     1  C    0.330029
     2  C   -0.206694
     3  C   -0.183413
     4  C   -0.177086
     5  C   -0.226338
     6  C   -0.135037
     7  H    0.153529
     8  H    0.142726
     9  H    0.148359
    10  H    0.162635
    11  C    0.421812
    12  F   -0.119153
    13  F   -0.070796
    14  F   -0.117228
    15  Br  -0.123346
 Sum of Mulliken charges =   0.00000

 Dipole moment (field-independent basis, Debye):
    X=              1.1840    Y=              2.3576    Z=             -0.0732  Tot=              2.6393
 Quadrupole moment (field-independent basis, Debye-Ang):
   XX=            -80.6354   YY=            -67.3531   ZZ=            -78.0684
   XY=             -2.1290   XZ=              0.2309   YZ=              0.0982

  Exact polarizability: 132.693  -8.912 106.666   0.285   0.170  62.235
 Approx polarizability: 194.796 -14.602 173.498   0.878   0.626  94.416

 Summary of Natural Population Analysis:

                                       Natural Population
                Natural  -----------------------------------------------
    Atom  No    Charge         Core      Valence    Rydberg      Total
 -----------------------------------------------------------------------
      C    1   -0.10016      1.99863     4.07836    0.02317     6.10016
      C    2   -0.20883      1.99895     4.19052    0.01935     6.20883
      C    3   -0.18018      1.99916     4.16353    0.01749     6.18018
      C    4   -0.17986      1.99908     4.16350    0.01728     6.17986
      C    5   -0.13040      1.99889     4.11300    0.01851     6.13040
      C    6   -0.20210      1.99886     4.18262    0.02062     6.20210
      H    7    0.22782      0.00000     0.77061    0.00157     0.77218
      H    8    0.21779      0.00000     0.78078    0.00143     0.78221
      H    9    0.22885      0.00000     0.76954    0.00161     0.77115
      H   10    0.24208      0.00000     0.75611    0.00181     0.75792
      C   11    1.06869      1.99911     2.87188    0.06032     4.93131
      F   12   -0.35536      1.99992     7.34896    0.00648     9.35536
      F   13   -0.35512      1.99992     7.34877    0.00643     9.35512
      F   14   -0.35498      1.99992     7.34851    0.00656     9.35498
     Br   15    0.08177     27.99926     6.90012    0.01885    34.91823
 =======================================================================
   * Total *    0.00000     47.99170    59.78681    0.22149   108.00000

                      1                      2                      3
                      A                      A                      A
 Frequencies --     18.8280               119.0390               123.7213
 Red. masses --     13.3195                 6.7678                16.7788
 Frc consts  --      0.0028                 0.0565                 0.1513
 IR Inten    --      0.2242                 0.0207                 0.6274

                      4                      5                      6
                      A                      A                      A
 Frequencies --    173.0644               253.0797               298.5391
 Red. masses --      5.0091                11.4464                 8.0482
 Frc consts  --      0.0884                 0.4319                 0.4226
 IR Inten    --      0.1894                 0.8072                 0.7373

                      7                      8                      9
                      A                      A                      A
 Frequencies --    324.1431               350.3162               418.8820
 Red. masses --      6.2585                 8.7737                 8.3721
 Frc consts  --      0.3874                 0.6344                 0.8655
 IR Inten    --      1.0203                 4.3578                 2.7458

                     10                     11                     12
                      A                      A                      A
 Frequencies --    443.6502               503.6480               573.4882
 Red. masses --      3.3604                 9.6578                12.3730
 Frc consts  --      0.3897                 1.4434                 2.3976
 IR Inten    --      2.7576                 1.8524                 0.2002

                     13                     14                     15
                      A                      A                      A
 Frequencies --    614.3563               657.0182               695.3062
 Red. masses --      6.9154                 7.8502                10.4142
 Frc consts  --      1.5378                 1.9966                 2.9664
 IR Inten    --      0.8436                 4.7192                42.8896

                     16                     17                     18
                      A                      A                      A
 Frequencies --    706.9678               797.0155               805.1909
 Red. masses --      2.2311                 9.6677                 1.5024
 Frc consts  --      0.6570                 3.6183                 0.5739
 IR Inten    --     22.8432                28.2373                42.2178

                     19                     20                     21
                      A                      A                      A
 Frequencies --    912.7934               933.8985               999.5719
 Red. masses --      1.3979                 1.3946                 1.3259
 Frc consts  --      0.6862                 0.7166                 0.7805
 IR Inten    --     13.8171                 4.6168                 0.2440

                     22                     23                     24
                      A                      A                      A
 Frequencies --   1013.7358              1075.3470              1094.9667
 Red. masses --      6.3308                 6.9149                 1.9855
 Frc consts  --      3.8332                 4.7112                 1.4026
 IR Inten    --      4.1763                96.8665                16.4482

                     25                     26                     27
                      A                      A                      A
 Frequencies --   1109.0799              1111.9683              1159.6922
 Red. masses --      3.5627                 3.9760                 3.6846
 Frc consts  --      2.5820                 2.8966                 2.9196
 IR Inten    --    167.9537               163.4320               172.5579

                     28                     29                     30
                      A                      A                      A
 Frequencies --   1196.6375              1296.1481              1320.7397
 Red. masses --      1.1290                 2.4348                 4.0293
 Frc consts  --      0.9525                 2.4100                 4.1411
 IR Inten    --      0.4800               220.5126               195.5622

                     31                     32                     33
                      A                      A                      A
 Frequencies --   1340.5451              1451.0930              1507.7184
 Red. masses --      2.1760                 2.9202                 2.3683
 Frc consts  --      2.3040                 3.6229                 3.1720
 IR Inten    --      5.9185                43.2374                10.0862

                     34                     35                     36
                      A                      A                      A
 Frequencies --   1613.4925              1637.1434              3183.3505
 Red. masses --      6.1966                 5.8467                 1.0882
 Frc consts  --      9.5047                 9.2329                 6.4973
 IR Inten    --     20.7970                 1.7110                 3.6771

                     37                     38                     39
                      A                      A                      A
 Frequencies --   3204.3209              3209.3220              3215.6453
 Red. masses --      1.0920                 1.0959                 1.0921
 Frc consts  --      6.6064                 6.6505                 6.6537
 IR Inten    --      0.2318                 1.7861                 1.3056

 - Thermochemistry -
 -------------------
 Temperature   298.150 Kelvin.  Pressure   1.00000 Atm.
 Atom     1 has atomic number  6 and mass  12.00000

 Molecular mass:   223.94485 amu.
 Principal axes and moments of inertia in atomic units:
                           1         2         3
     Eigenvalues --  1094.603364798.679775573.72982
           X            0.99998   0.00650   0.00015
           Y           -0.00651   0.99998   0.00043
           Z           -0.00014  -0.00043   1.00000
 This molecule is an asymmetric top.
 Rotational symmetry number  1.
 Warning -- assumption of classical behavior for rotation
           may cause significant error
 Rotational temperatures (Kelvin)      0.07913     0.01805     0.01554
 Rotational constants (GHZ):           1.64876     0.37609     0.32379
 Zero-point vibrational energy     248006.6 (Joules/Mol)
                                   59.27500 (Kcal/Mol)
 Warning -- explicit consideration of  13 degrees of freedom as
           vibrations may cause significant error
 Vibrational temperatures:     27.09   171.27   178.01   249.00   364.12
          (Kelvin)            429.53   466.37   504.03   602.68   638.31
                              724.64   825.12   883.92   945.30  1000.39
                             1017.17  1146.73  1158.49  1313.30  1343.67
                             1438.16  1458.54  1547.18  1575.41  1595.72
                             1599.87  1668.54  1721.69  1864.87  1900.25
                             1928.74  2087.80  2169.27  2321.45  2355.48
                             4580.13  4610.30  4617.49  4626.59

 Zero-point correction=                           0.094461 (Hartree/Particle)
 Thermal correction to Energy=                    0.103822
 Thermal correction to Enthalpy=                  0.104766
 Thermal correction to Gibbs Free Energy=         0.057094
 Sum of electronic and zero-point Energies=          -3142.907022
 Sum of electronic and thermal Energies=             -3142.897661
 Sum of electronic and thermal Enthalpies=           -3142.896716
 Sum of electronic and thermal Free Energies=        -3142.944388

                     E (Thermal)             CV                S
                      KCal/Mol        Cal/Mol-Kelvin    Cal/Mol-Kelvin
 Total                   65.149             34.245            100.334
 Electronic               0.000              0.000              0.000
 Translational            0.889              2.981             42.121
 Rotational               0.889              2.981             31.749
 Vibrational             63.372             28.284             26.464
 Vibration     1          0.593              1.986              6.754
 Vibration     2          0.609              1.933              3.116
 Vibration     3          0.610              1.929              3.041
 Vibration     4          0.627              1.876              2.402
 Vibration     5          0.664              1.758              1.709
 Vibration     6          0.692              1.676              1.425
 Vibration     7          0.709              1.627              1.289
 Vibration     8          0.727              1.575              1.165
 Vibration     9          0.782              1.429              0.896
 Vibration    10          0.803              1.375              0.815
 Vibration    11          0.859              1.242              0.649
 Vibration    12          0.930              1.089              0.498
 Vibration    13          0.974              1.001              0.426

 Optimization completed.
    -- Stationary point found.
 Normal termination of Gaussian 09 at Mon Aug 26 15:37:09 2024.
