 Gaussian 09, Revision D.01,
 Gaussian 09:  ES64L-G09RevD.01 24-Apr-2013

 ----------------------------------------------------------------------
 # opt freq=noraman b3lyp/6-311+g(d,p) pop=(npa,hirshfeld,chelpg,mbs) g
 eom=connectivity
 ----------------------------------------------------------------------

 -------------------
 Title Card Required
 -------------------
 Symbolic Z-matrix:
 Charge =  0 Multiplicity = 1

 SCF Done:  E(RB3LYP) =  -1082.68440202     A.U. after   17 cycles
 SCF Done:  E(RB3LYP) =  -1082.76550484     A.U. after   16 cycles
 SCF Done:  E(RB3LYP) =  -1082.80316019     A.U. after   15 cycles
 SCF Done:  E(RB3LYP) =  -1082.83097741     A.U. after   15 cycles
 SCF Done:  E(RB3LYP) =  -1082.84396235     A.U. after   14 cycles
 SCF Done:  E(RB3LYP) =  -1082.84675727     A.U. after   16 cycles
 SCF Done:  E(RB3LYP) =  -1082.84448164     A.U. after   14 cycles
 SCF Done:  E(RB3LYP) =  -1082.84805043     A.U. after   12 cycles
 SCF Done:  E(RB3LYP) =  -1082.84790911     A.U. after   14 cycles
 SCF Done:  E(RB3LYP) =  -1082.84929233     A.U. after   11 cycles
 SCF Done:  E(RB3LYP) =  -1082.85282507     A.U. after   12 cycles
 SCF Done:  E(RB3LYP) =  -1082.85283979     A.U. after   11 cycles
 SCF Done:  E(RB3LYP) =  -1082.85284406     A.U. after   11 cycles
 SCF Done:  E(RB3LYP) =  -1082.85285084     A.U. after   11 cycles
 SCF Done:  E(RB3LYP) =  -1082.85285200     A.U. after   10 cycles
 SCF Done:  E(RB3LYP) =  -1082.85285280     A.U. after   10 cycles
 SCF Done:  E(RB3LYP) =  -1082.85285520     A.U. after    9 cycles
 SCF Done:  E(RB3LYP) =  -1082.85285540     A.U. after    9 cycles
 SCF Done:  E(RB3LYP) =  -1082.85285572     A.U. after    8 cycles
 Optimization completed.
    -- Stationary point found.
 Normal termination of Gaussian 09 at Sat Mar 29 16:37:42 2025.

 ----------------------------------------------------------------------
 #N Geom=AllCheck Guess=TCheck SCRF=Check GenChk RB3LYP/6-311+G(d,p) Fr
 eq
 ----------------------------------------------------------------------

 Structure from the checkpoint file:  "fig16_4.chk"
 -------------------
 Title Card Required
 -------------------
 Charge =  0 Multiplicity = 1

                         Standard orientation:
 ---------------------------------------------------------------------
 Center     Atomic      Atomic             Coordinates (Angstroms)
 Number     Number       Type             X           Y           Z
 ---------------------------------------------------------------------
      1          6           0       -1.722521    0.997328   -0.043722
      2          6           0       -2.280702    2.267812   -0.051272
      3          6           0       -1.226591    3.192851    0.044029
      4          6           0       -0.060682    2.456307    0.103202
      5          7           0       -0.326903    1.105944    0.050028
      6          1           0       -3.337035    2.473236   -0.114441
      7          1           0       -1.295902    4.269380    0.066952
      8          1           0        0.947901    2.821269    0.175422
      9         14           0        1.018758   -0.160654    0.110233
     10          6           0        2.633644    0.880296   -0.073171
     11          1           0        2.526462    1.717943    0.626329
     12          6           0        1.090686   -0.959973    1.846110
     13          1           0        2.083288   -1.432622    1.844939
     14          6           0        0.804874   -1.436804   -1.293693
     15          1           0       -0.000088   -2.081031   -0.934297
     16          6           0        1.094708    0.106284    2.960995
     17          1           0        0.137748    0.634729    3.004853
     18          1           0        1.255595   -0.361976    3.938384
     19          1           0        1.879240    0.856736    2.826939
     20          6           0        0.077599   -2.071306    2.170065
     21          1           0        0.341753   -2.545944    3.122387
     22          1           0       -0.936592   -1.680450    2.260170
     23          1           0        0.052059   -2.848684    1.403812
     24          6           0        3.907277    0.131055    0.378642
     25          1           0        4.104967   -0.756030   -0.227498
     26          1           0        4.778361    0.788551    0.279519
     27          1           0        3.858155   -0.183494    1.423306
     28          6           0        2.852468    1.474841   -1.480103
     29          1           0        1.984530    2.026654   -1.849336
     30          1           0        3.705331    2.163197   -1.476369
     31          1           0        3.076546    0.691070   -2.208316
     32          6           0        2.053833   -2.322502   -1.481777
     33          1           0        2.394968   -2.770293   -0.543448
     34          1           0        1.828398   -3.145900   -2.168772
     35          1           0        2.892838   -1.767993   -1.911620
     36          6           0        0.341058   -0.850679   -2.640970
     37          1           0        0.119536   -1.659985   -3.346047
     38          1           0       -0.565134   -0.249616   -2.538649
     39          1           0        1.105840   -0.220317   -3.102484
     40          6           0       -2.442347   -0.265009   -0.093917
     41          8           0       -1.950200   -1.374746   -0.012851
     42          8           0       -3.777567   -0.074042   -0.238393
     43          6           0       -4.578021   -1.265461   -0.274494
     44          1           0       -5.603754   -0.920272   -0.387428
     45          1           0       -4.292859   -1.896750   -1.117648
     46          1           0       -4.466022   -1.833801    0.650311
 ---------------------------------------------------------------------

 SCF Done:  E(RB3LYP) =  -1082.85285572     A.U. after    1 cycles

 The electronic state is 1-A.
 Alpha  occ. eigenvalues --  -66.10776 -19.16493 -19.10735 -14.35067 -10.30189
 Alpha  occ. eigenvalues --  -10.22467 -10.20402 -10.20265 -10.17019 -10.17012
 Alpha  occ. eigenvalues --  -10.16587 -10.16498 -10.16353 -10.16330 -10.16270
 Alpha  occ. eigenvalues --  -10.16052 -10.15840 -10.15633 -10.15053  -5.27808
 Alpha  occ. eigenvalues --   -3.63846  -3.63538  -3.63460  -1.10652  -1.01912
 Alpha  occ. eigenvalues --   -0.96918  -0.79703  -0.77806  -0.77628  -0.77467
 Alpha  occ. eigenvalues --   -0.76291  -0.71145  -0.69019  -0.68234  -0.67873
 Alpha  occ. eigenvalues --   -0.61627  -0.61367  -0.58575  -0.57555  -0.57113
 Alpha  occ. eigenvalues --   -0.55684  -0.54624  -0.48704  -0.48472  -0.47861
 Alpha  occ. eigenvalues --   -0.47179  -0.45547  -0.45455  -0.44361  -0.43744
 Alpha  occ. eigenvalues --   -0.43003  -0.42135  -0.41904  -0.41541  -0.40867
 Alpha  occ. eigenvalues --   -0.40536  -0.40016  -0.39582  -0.39365  -0.39165
 Alpha  occ. eigenvalues --   -0.38938  -0.37785  -0.37505  -0.36146  -0.35098
 Alpha  occ. eigenvalues --   -0.35078  -0.34350  -0.34021  -0.33882  -0.33664
 Alpha  occ. eigenvalues --   -0.32587  -0.30787  -0.28379  -0.28174  -0.27150
 Alpha  occ. eigenvalues --   -0.25201  -0.22891
 Alpha virt. eigenvalues --   -0.03960  -0.00771   0.00471   0.00665   0.00819
 Alpha virt. eigenvalues --    0.02036   0.02404   0.02675   0.02972   0.03524
 Alpha virt. eigenvalues --    0.03661   0.04051   0.04499   0.04887   0.05430

 Mulliken charges:
               1
     1  C   -0.164239
     2  C   -0.155739
     3  C   -0.643905
     4  C    0.159116
     5  N    0.043591
     6  H    0.130665
     7  H    0.118759
     8  H    0.138066
     9  Si   1.519950
    10  C   -0.300151
    11  H    0.145178
    12  C   -0.335439
    13  H    0.154853
    14  C   -0.351937
    15  H    0.226575
    16  C   -0.516888
    17  H    0.164832
    18  H    0.141363
    19  H    0.140214
    20  C   -0.545634
    21  H    0.129469
    22  H    0.163680
    23  H    0.147036
    24  C   -0.549084
    25  H    0.149258
    26  H    0.138436
    27  H    0.148319
    28  C   -0.534738
    29  H    0.153010
    30  H    0.139666
    31  H    0.148327
    32  C   -0.541974
    33  H    0.140547
    34  H    0.145100
    35  H    0.143194
    36  C   -0.555577
    37  H    0.136976
    38  H    0.158558
    39  H    0.144212
    40  C   -0.017949
    41  O   -0.199503
    42  O   -0.139296
    43  C   -0.187187
    44  H    0.152554
    45  H    0.158327
    46  H    0.159408
 Sum of Mulliken charges =   0.00000

 Dipole moment (field-independent basis, Debye):
    X=              0.5077    Y=              0.1535    Z=             -0.0161  Tot=              0.5307
 Quadrupole moment (field-independent basis, Debye-Ang):
   XX=           -117.1016   YY=           -126.1236   ZZ=           -129.8269
   XY=              3.5947   XZ=              1.1848   YZ=              0.9858

  Exact polarizability: 238.888   4.398 225.571   1.355   0.326 186.491
 Approx polarizability: 328.137   6.814 352.876   4.432   1.687 262.884

 ESP charges:
               1
     1  C   -0.318885
     2  C   -0.077661
     3  C   -0.146306
     4  C   -0.184850
     5  N    0.229571
     6  H    0.100454
     7  H    0.109548
     8  H    0.127639
     9  Si  -0.056479
    10  C    0.330878
    11  H   -0.043458
    12  C    0.259380
    13  H   -0.026940
    14  C    0.348077
    15  H   -0.017448
    16  C   -0.170897
    17  H   -0.000070
    18  H    0.044526
    19  H    0.012573
    20  C   -0.277599
    21  H    0.040236
    22  H    0.078457
    23  H    0.057721
    24  C   -0.256840
    25  H    0.047635
    26  H    0.040257
    27  H    0.047676
    28  C   -0.196516
    29  H    0.008804
    30  H    0.030992
    31  H    0.045009
    32  C   -0.293992
    33  H    0.054185
    34  H    0.048556
    35  H    0.060283
    36  C   -0.215876
    37  H    0.042316
    38  H    0.008298
    39  H    0.034710
    40  C    0.800841
    41  O   -0.539916
    42  O   -0.401308
    43  C    0.055776
    44  H    0.071965
    45  H    0.045200
    46  H    0.043479
 Sum of ESP charges =   0.00000

 Summary of Natural Population Analysis:

                                       Natural Population
                Natural  -----------------------------------------------
    Atom  No    Charge         Core      Valence    Rydberg      Total
 -----------------------------------------------------------------------
      C    1    0.01270      1.99893     3.96470    0.02367     5.98730
      C    2   -0.20491      1.99908     4.19038    0.01546     6.20491
      C    3   -0.29534      1.99915     4.27929    0.01690     6.29534
      C    4    0.01125      1.99918     3.96821    0.02137     5.98875
      N    5   -0.75075      1.99934     5.72058    0.03084     7.75075
      H    6    0.22840      0.00000     0.76992    0.00168     0.77160
      H    7    0.21791      0.00000     0.78066    0.00143     0.78209
      H    8    0.20321      0.00000     0.79460    0.00219     0.79679
     Si    9    2.02331      9.99752     1.93740    0.04177    11.97669
      C   10   -0.73371      1.99918     4.71248    0.02205     6.73371
      H   11    0.20662      0.00000     0.79040    0.00298     0.79338
      C   12   -0.73718      1.99914     4.71632    0.02172     6.73718
      H   13    0.21442      0.00000     0.78356    0.00202     0.78558
      C   14   -0.75105      1.99911     4.73000    0.02194     6.75105
      H   15    0.24818      0.00000     0.74847    0.00335     0.75182
      C   16   -0.57098      1.99936     4.55952    0.01211     6.57098
      H   17    0.20238      0.00000     0.79619    0.00143     0.79762
      H   18    0.20014      0.00000     0.79855    0.00131     0.79986
      H   19    0.19523      0.00000     0.80320    0.00157     0.80477
      C   20   -0.56069      1.99935     4.54863    0.01271     6.56069
      H   21    0.18986      0.00000     0.80885    0.00129     0.81014
      H   22    0.20682      0.00000     0.79154    0.00164     0.79318
      H   23    0.20334      0.00000     0.79519    0.00147     0.79666
      C   24   -0.56852      1.99935     4.55746    0.01171     6.56852
      H   25    0.19809      0.00000     0.80049    0.00142     0.80191
      H   26    0.19952      0.00000     0.79913    0.00135     0.80048
      H   27    0.20065      0.00000     0.79785    0.00151     0.79935
      C   28   -0.57378      1.99935     4.56245    0.01198     6.57378
      H   29    0.20501      0.00000     0.79357    0.00141     0.79499
      H   30    0.19791      0.00000     0.80075    0.00134     0.80209
      H   31    0.19676      0.00000     0.80162    0.00162     0.80324
      C   32   -0.56788      1.99935     4.55757    0.01096     6.56788
      H   33    0.19858      0.00000     0.80008    0.00134     0.80142
      H   34    0.20208      0.00000     0.79664    0.00128     0.79792
      H   35    0.19061      0.00000     0.80773    0.00167     0.80939
      C   36   -0.56574      1.99936     4.55437    0.01201     6.56574
      H   37    0.19804      0.00000     0.80072    0.00124     0.80196
      H   38    0.20571      0.00000     0.79305    0.00124     0.79429
      H   39    0.19246      0.00000     0.80610    0.00144     0.80754
      C   40    0.77167      1.99918     3.18552    0.04363     5.22833
      O   41   -0.62950      1.99975     6.61618    0.01358     8.62950
      O   42   -0.55238      1.99973     6.53785    0.01480     8.55238
      C   43   -0.21226      1.99925     4.19694    0.01608     6.21226
      H   44    0.18540      0.00000     0.81345    0.00116     0.81460
      H   45    0.18431      0.00000     0.81379    0.00191     0.81569
      H   46    0.18413      0.00000     0.81397    0.00190     0.81587
 =======================================================================
   * Total *    0.00000     45.98466   107.59586    0.41947   154.00000

                      1                      2                      3
                      A                      A                      A
 Frequencies --     29.1967                35.4560                54.0374
 Red. masses --      3.8825                 3.3884                 3.4273
 Frc consts  --      0.0019                 0.0025                 0.0059
 IR Inten    --      0.1994                 0.4464                 0.1334

                      4                      5                      6
                      A                      A                      A
 Frequencies --     63.3155                84.8678                89.5208
 Red. masses --      2.8135                 3.2787                 2.7328
 Frc consts  --      0.0066                 0.0139                 0.0129
 IR Inten    --      0.1503                 0.3127                 0.6156

                      7                      8                      9
                      A                      A                      A
 Frequencies --    101.2265               109.1249               127.6327
 Red. masses --      3.9791                 2.1184                 2.5818
 Frc consts  --      0.0240                 0.0149                 0.0248
 IR Inten    --      2.0703                 1.4725                 2.4899

                     10                     11                     12
                      A                      A                      A
 Frequencies --    143.4365               148.0676               159.9329
 Red. masses --      1.7526                 3.0342                 2.7011
 Frc consts  --      0.0212                 0.0392                 0.0407
 IR Inten    --      0.3371                 0.1274                 0.3891

                     13                     14                     15
                      A                      A                      A
 Frequencies --    162.6278               183.5244               203.7577
 Red. masses --      2.7773                 3.5696                 1.2940
 Frc consts  --      0.0433                 0.0708                 0.0317
 IR Inten    --      0.5446                 3.2950                 0.2534

                     16                     17                     18
                      A                      A                      A
 Frequencies --    215.4215               221.3700               225.8013
 Red. masses --      2.4158                 1.3770                 1.3015
 Frc consts  --      0.0661                 0.0398                 0.0391
 IR Inten    --      2.0869                 0.8750                 0.3491

                     19                     20                     21
                      A                      A                      A
 Frequencies --    231.2803               236.4282               250.4233
 Red. masses --      1.2596                 1.8372                 1.3285
 Frc consts  --      0.0397                 0.0605                 0.0491
 IR Inten    --      0.0814                 0.5457                 0.2737

                     22                     23                     24
                      A                      A                      A
 Frequencies --    253.6714               259.6778               270.7516
 Red. masses --      1.3114                 3.0139                 2.0809
 Frc consts  --      0.0497                 0.1197                 0.0899
 IR Inten    --      0.6805                 0.4932                 2.1548

                     25                     26                     27
                      A                      A                      A
 Frequencies --    275.1170               286.2546               324.0951
 Red. masses --      2.7924                 2.5251                 2.3764
 Frc consts  --      0.1245                 0.1219                 0.1471
 IR Inten    --      0.1549                 0.3046                 3.7725

                     28                     29                     30
                      A                      A                      A
 Frequencies --    337.1468               375.2508               399.6813
 Red. masses --      3.9993                 2.5781                 2.6001
 Frc consts  --      0.2678                 0.2139                 0.2447
 IR Inten    --     23.7694                 3.7276                 2.0868

                     31                     32                     33
                      A                      A                      A
 Frequencies --    406.6114               419.9289               442.3498
 Red. masses --      4.0473                 2.4912                 4.3017
 Frc consts  --      0.3942                 0.2588                 0.4959
 IR Inten    --      6.5098                 5.7353                 4.2096

                     34                     35                     36
                      A                      A                      A
 Frequencies --    509.2267               534.6728               571.7109
 Red. masses --      4.0660                 3.7199                 4.6067
 Frc consts  --      0.6212                 0.6266                 0.8871
 IR Inten    --     27.5505                14.0166                63.3822

                     37                     38                     39
                      A                      A                      A
 Frequencies --    617.8038               637.4466               650.6139
 Red. masses --      3.0937                 4.9295                 5.7089
 Frc consts  --      0.6957                 1.1802                 1.4238
 IR Inten    --      1.1246                36.6545                36.1344

                     40                     41                     42
                      A                      A                      A
 Frequencies --    679.6374               758.5513               776.8518
 Red. masses --      4.5752                 1.2068                 5.0397
 Frc consts  --      1.2451                 0.4091                 1.7920
 IR Inten    --     63.0680                58.0019                16.1767

                     43                     44                     45
                      A                      A                      A
 Frequencies --    807.8609               853.2272               885.5625
 Red. masses --      5.4885                 1.5094                 2.5552
 Frc consts  --      2.1105                 0.6474                 1.1806
 IR Inten    --      6.0802                 1.3164                 5.8929

                     46                     47                     48
                      A                      A                      A
 Frequencies --    888.3606               888.9664               900.9709
 Red. masses --      2.4750                 2.5753                 5.3184
 Frc consts  --      1.1508                 1.1991                 2.5436
 IR Inten    --     30.5020                13.8376                 2.3805

                     49                     50                     51
                      A                      A                      A
 Frequencies --    910.3433               928.3400               930.3416
 Red. masses --      1.3688                 1.1723                 1.1699
 Frc consts  --      0.6683                 0.5953                 0.5966
 IR Inten    --      0.4212                 2.2931                 9.0476

                     52                     53                     54
                      A                      A                      A
 Frequencies --    932.5606               962.2104               980.7803
 Red. masses --      1.1683                 4.7639                 1.4014
 Frc consts  --      0.5986                 2.5987                 0.7943
 IR Inten    --      2.1209                13.9206                 0.3729

                     55                     56                     57
                      A                      A                      A
 Frequencies --    981.0609               982.1752              1016.2815
 Red. masses --      1.4533                 1.4296                 1.2652
 Frc consts  --      0.8241                 0.8125                 0.7699
 IR Inten    --      0.1019                 0.4897                 7.9436

                     58                     59                     60
                      A                      A                      A
 Frequencies --   1031.9157              1035.4139              1047.5803
 Red. masses --      1.4384                 1.7167                 1.2723
 Frc consts  --      0.9024                 1.0843                 0.8227
 IR Inten    --     17.9867                19.7248                43.4517

                     61                     62                     63
                      A                      A                      A
 Frequencies --   1076.4260              1082.1076              1089.3014
 Red. masses --      2.5995                 1.7478                 2.4751
 Frc consts  --      1.7747                 1.2058                 1.7303
 IR Inten    --      3.8240                75.4580                31.4740

                     64                     65                     66
                      A                      A                      A
 Frequencies --   1097.7590              1129.2894              1171.3936
 Red. masses --      2.6367                 2.1793                 4.1413
 Frc consts  --      1.8720                 1.6375                 3.3481
 IR Inten    --      0.8218               174.2950               332.5561

                     67                     68                     69
                      A                      A                      A
 Frequencies --   1171.7924              1183.0708              1185.2594
 Red. masses --      1.2905                 1.8584                 1.8445
 Frc consts  --      1.0440                 1.5325                 1.5267
 IR Inten    --      6.7386                 1.9851                 0.3105

                     70                     71                     72
                      A                      A                      A
 Frequencies --   1188.6516              1203.0618              1224.8324
 Red. masses --      1.9269                 1.5423                 2.1943
 Frc consts  --      1.6040                 1.3152                 1.9395
 IR Inten    --      6.4102                15.8559               116.1411

                     73                     74                     75
                      A                      A                      A
 Frequencies --   1274.2983              1277.6897              1286.3749
 Red. masses --      1.4874                 1.4781                 2.4323
 Frc consts  --      1.4230                 1.4217                 2.3714
 IR Inten    --      1.9082                 5.2401                38.1291

                     76                     77                     78
                      A                      A                      A
 Frequencies --   1293.6134              1330.8699              1342.3592
 Red. masses --      1.4362                 1.2663                 1.2604
 Frc consts  --      1.4161                 1.3215                 1.3381
 IR Inten    --     14.4241                 2.1672                 0.5230

                     79                     80                     81
                      A                      A                      A
 Frequencies --   1345.5545              1355.2825              1398.7187
 Red. masses --      1.2578                 7.0250                 1.1961
 Frc consts  --      1.3417                 7.6025                 1.3788
 IR Inten    --      1.7789               169.8073                 1.3166

                     82                     83                     84
                      A                      A                      A
 Frequencies --   1402.0666              1405.0329              1417.4903
 Red. masses --      1.1966                 1.1963                 1.2017
 Frc consts  --      1.3859                 1.3915                 1.4226
 IR Inten    --      3.3369                 3.4843                 2.1175

                     85                     86                     87
                      A                      A                      A
 Frequencies --   1425.1753              1427.2668              1449.1373
 Red. masses --      1.2010                 1.2026                 4.1046
 Frc consts  --      1.4372                 1.4434                 5.0786
 IR Inten    --      7.2647                 2.3785                87.7928

                     88                     89                     90
                      A                      A                      A
 Frequencies --   1465.0321              1473.2809              1483.3010
 Red. masses --      2.7929                 1.2741                 1.0456
 Frc consts  --      3.5319                 1.6294                 1.3554
 IR Inten    --     32.1949                55.2671                 6.5228

                     91                     92                     93
                      A                      A                      A
 Frequencies --   1483.8953              1489.5471              1493.7030
 Red. masses --      1.0467                 1.0465                 1.0437
 Frc consts  --      1.3580                 1.3680                 1.3720
 IR Inten    --     10.3993                 1.6926                 1.8536

                     94                     95                     96
                      A                      A                      A
 Frequencies --   1495.2328              1496.7789              1498.1404
 Red. masses --      1.0469                 1.0432                 1.0472
 Frc consts  --      1.3791                 1.3771                 1.3848
 IR Inten    --      3.9131                 1.5115                10.8330

                     97                     98                     99
                      A                      A                      A
 Frequencies --   1500.2181              1505.2649              1507.8132
 Red. masses --      1.0581                 1.0489                 1.0413
 Frc consts  --      1.4031                 1.4003                 1.3948
 IR Inten    --      6.8525                10.8543                 6.8379

                    100                    101                    102
                      A                      A                      A
 Frequencies --   1508.7034              1511.2107              1515.2999
 Red. masses --      1.0478                 1.0434                 1.0432
 Frc consts  --      1.4052                 1.4040                 1.4113
 IR Inten    --      1.3580                18.0560                 6.9368

                    103                    104                    105
                      A                      A                      A
 Frequencies --   1516.3808              1558.5929              1744.9593
 Red. masses --      1.0459                 4.7008                11.3084
 Frc consts  --      1.4170                 6.7280                20.2872
 IR Inten    --      4.7175                23.5670               387.4858

                    106                    107                    108
                      A                      A                      A
 Frequencies --   2984.7108              3005.5603              3010.1951
 Red. masses --      1.0799                 1.0791                 1.0362
 Frc consts  --      5.6679                 5.7431                 5.5321
 IR Inten    --     17.2385                24.4018                32.6560

                    109                    110                    111
                      A                      A                      A
 Frequencies --   3011.7900              3013.1310              3014.6482
 Red. masses --      1.0409                 1.0414                 1.0439
 Frc consts  --      5.5629                 5.5706                 5.5894
 IR Inten    --     29.3562                29.7239               115.2482

                    112                    113                    114
                      A                      A                      A
 Frequencies --   3015.7111              3020.0816              3046.2266
 Red. masses --      1.0423                 1.0444                 1.0299
 Frc consts  --      5.5850                 5.6127                 5.6307
 IR Inten    --     17.6838                57.6654                43.8205

                    115                    116                    117
                      A                      A                      A
 Frequencies --   3058.8781              3065.5601              3067.4453
 Red. masses --      1.0940                 1.0958                 1.0986
 Frc consts  --      6.0309                 6.0675                 6.0904
 IR Inten    --     50.1033                 5.8151                31.8881

                    118                    119                    120
                      A                      A                      A
 Frequencies --   3072.3547              3075.3976              3078.8177
 Red. masses --      1.0931                 1.0964                 1.0902
 Frc consts  --      6.0795                 6.1098                 6.0885
 IR Inten    --     30.5034                 8.7762                36.0111

                    121                    122                    123
                      A                      A                      A
 Frequencies --   3082.7869              3083.7886              3087.2811
 Red. masses --      1.0948                 1.0958                 1.0931
 Frc consts  --      6.1303                 6.1395                 6.1383
 IR Inten    --     19.1362                38.6113                22.1703

                    124                    125                    126
                      A                      A                      A
 Frequencies --   3094.6021              3099.9894              3107.1762
 Red. masses --      1.1012                 1.0994                 1.1007
 Frc consts  --      6.2132                 6.2246                 6.2611
 IR Inten    --     11.8681                30.9578                33.4825

                    127                    128                    129
                      A                      A                      A
 Frequencies --   3115.8910              3116.2829              3150.6141
 Red. masses --      1.1012                 1.1057                 1.1056
 Frc consts  --      6.2989                 6.3262                 6.4663
 IR Inten    --     15.7185                29.0520                17.5757

                    130                    131                    132
                      A                      A                      A
 Frequencies --   3235.8681              3259.1018              3290.1755
 Red. masses --      1.0921                 1.0991                 1.0968
 Frc consts  --      6.7374                 6.8784                 6.9953
 IR Inten    --      3.8449                 0.4351                 1.0065

 - Thermochemistry -
 -------------------
 Temperature   298.150 Kelvin.  Pressure   1.00000 Atm.
 Atom     1 has atomic number  6 and mass  12.00000

 Molecular mass:   281.18111 amu.
 Principal axes and moments of inertia in atomic units:
                           1         2         3
     Eigenvalues --  3943.577076719.004247315.96278
           X            0.99992   0.01192  -0.00381
           Y           -0.01193   0.99993  -0.00278
           Z            0.00378   0.00282   0.99999
 This molecule is an asymmetric top.
 Rotational symmetry number  1.
 Warning -- assumption of classical behavior for rotation
           may cause significant error
 Rotational temperatures (Kelvin)      0.02196     0.01289     0.01184
 Rotational constants (GHZ):           0.45764     0.26860     0.24669
 Zero-point vibrational energy    1044176.9 (Joules/Mol)
                                  249.56427 (Kcal/Mol)
 Warning -- explicit consideration of  37 degrees of freedom as
           vibrations may cause significant error
 Vibrational temperatures:     42.01    51.01    77.75    91.10   122.11
          (Kelvin)            128.80   145.64   157.01   183.63   206.37
                              213.04   230.11   233.98   264.05   293.16
                              309.94   318.50   324.88   332.76   340.17
                              360.30   364.98   373.62   389.55   395.83
                              411.86   466.30   485.08   539.90   575.05
                              585.02   604.18   636.44   732.66   769.27
                              822.56   888.88   917.14   936.09   977.85
                             1091.38  1117.72  1162.33  1227.60  1274.13
                             1278.15  1279.02  1296.29  1309.78  1335.67
                             1338.55  1341.74  1384.40  1411.12  1411.53
                             1413.13  1462.20  1484.69  1489.73  1507.23
                             1548.74  1556.91  1567.26  1579.43  1624.79
                             1685.37  1685.95  1702.17  1705.32  1710.20
                             1730.94  1762.26  1833.43  1838.31  1850.80
                             1861.22  1914.82  1931.35  1935.95  1949.95
                             2012.44  2017.26  2021.53  2039.45  2050.51
                             2053.52  2084.98  2107.85  2119.72  2134.14
                             2134.99  2143.12  2149.10  2151.30  2153.53
                             2155.49  2158.48  2165.74  2169.40  2170.68
                             2174.29  2180.18  2181.73  2242.46  2510.60
                             4294.33  4324.33  4330.99  4333.29  4335.22
                             4337.40  4338.93  4345.22  4382.84  4401.04
                             4410.65  4413.36  4420.43  4424.81  4429.73
                             4435.44  4436.88  4441.90  4452.44  4460.19
                             4470.53  4483.07  4483.63  4533.03  4655.69
                             4689.11  4733.82

 Zero-point correction=                           0.397706 (Hartree/Particle)
 Thermal correction to Energy=                    0.421565
 Thermal correction to Enthalpy=                  0.422509
 Thermal correction to Gibbs Free Energy=         0.345343
 Sum of electronic and zero-point Energies=          -1082.455150
 Sum of electronic and thermal Energies=             -1082.431291
 Sum of electronic and thermal Enthalpies=           -1082.430346
 Sum of electronic and thermal Free Energies=        -1082.507513

                     E (Thermal)             CV                S
                      KCal/Mol        Cal/Mol-Kelvin    Cal/Mol-Kelvin
 Total                  264.536             87.609            162.411
 Electronic               0.000              0.000              0.000
 Translational            0.889              2.981             42.800
 Rotational               0.889              2.981             33.627
 Vibrational            262.759             81.648             85.984
 Vibration     1          0.593              1.984              5.883
 Vibration     2          0.594              1.982              5.498
 Vibration     3          0.596              1.976              4.664
 Vibration     4          0.597              1.972              4.351
 Vibration     5          0.601              1.960              3.775
 Vibration     6          0.602              1.957              3.671
 Vibration     7          0.604              1.948              3.431
 Vibration     8          0.606              1.942              3.284
 Vibration     9          0.611              1.926              2.981
 Vibration    10          0.616              1.910              2.758
 Vibration    11          0.617              1.905              2.697
 Vibration    12          0.622              1.891              2.551
 Vibration    13          0.623              1.888              2.519
 Vibration    14          0.631              1.862              2.292
 Vibration    15          0.639              1.835              2.099
 Vibration    16          0.645              1.818              1.997
 Vibration    17          0.648              1.809              1.948
 Vibration    18          0.650              1.802              1.912
 Vibration    19          0.653              1.793              1.869
 Vibration    20          0.655              1.785              1.830
 Vibration    21          0.663              1.762              1.728
 Vibration    22          0.665              1.757              1.705
 Vibration    23          0.668              1.746              1.664
 Vibration    24          0.674              1.727              1.591
 Vibration    25          0.677              1.719              1.564
 Vibration    26          0.684              1.699              1.496
 Vibration    27          0.709              1.627              1.289
 Vibration    28          0.718              1.601              1.226
 Vibration    29          0.746              1.523              1.058
 Vibration    30          0.766              1.471              0.964
 Vibration    31          0.771              1.456              0.939
 Vibration    32          0.783              1.427              0.892
 Vibration    33          0.802              1.378              0.819
 Vibration    34          0.864              1.230              0.635
 Vibration    35          0.890              1.173              0.577
 Vibration    36          0.928              1.092              0.501
 Vibration    37          0.978              0.994              0.420

 Optimization completed.
    -- Stationary point found.
 Normal termination of Gaussian 09 at Sat Mar 29 17:09:10 2025.
