 Gaussian 09, Revision D.01,
 Gaussian 09:  ES64L-G09RevD.01 24-Apr-2013

 ---------------------------------------------------------------------
 # b3lyp/6-311+g(d,p) geom=connectivity pop=(hirshfeld,chelpg,mbs,npa)
 ---------------------------------------------------------------------

 ---------
 Table13_3
 ---------
 Symbolic Z-matrix:
 Charge =  0 Multiplicity = 1

                         Standard orientation:
 ---------------------------------------------------------------------
 Center     Atomic      Atomic             Coordinates (Angstroms)
 Number     Number       Type             X           Y           Z
 ---------------------------------------------------------------------
      1          6           0       -2.044681    1.358710    0.000028
      2          6           0       -0.902627    2.157208   -0.000011
      3          6           0        0.364238    1.581157   -0.000071
      4          6           0        0.491612    0.188321   -0.000091
      5          6           0       -0.648121   -0.622301   -0.000046
      6          6           0       -1.901543   -0.026793    0.000009
      7          1           0       -3.032780    1.801190    0.000072
      8          1           0       -1.007437    3.235874    0.000002
      9          1           0        1.251041    2.199919   -0.000106
     10          1           0       -0.537231   -1.698522   -0.000060
     11          6           0        1.819569   -0.495155   -0.000151
     12          8           0        1.970328   -1.694781   -0.000104
     13          8           0        2.846770    0.379452    0.000025
     14          6           0        4.164986   -0.199306    0.000177
     15          1           0        4.310618   -0.813941   -0.889015
     16          1           0        4.851143    0.644608    0.000505
     17          1           0        4.310251   -0.814347    0.889146
     18         17           0       -3.337823   -1.040188    0.000060
 ---------------------------------------------------------------------

 SCF Done:  E(RB3LYP) =  -919.879823825     A.U. after   15 cycles

 The electronic state is 1-A.
 Alpha  occ. eigenvalues -- -101.56118 -19.18184 -19.12243 -10.31564 -10.25284
 Alpha  occ. eigenvalues --  -10.23556 -10.21193 -10.20599 -10.20302 -10.20185
 Alpha  occ. eigenvalues --  -10.20039  -9.47575  -7.24038  -7.23058  -7.23022
 Alpha  occ. eigenvalues --   -1.12258  -1.03449  -0.90894  -0.85644  -0.79298
 Alpha  occ. eigenvalues --   -0.76051  -0.73651  -0.65469  -0.62696  -0.58235
 Alpha  occ. eigenvalues --   -0.55122  -0.51184  -0.50004  -0.49847  -0.47546
 Alpha  occ. eigenvalues --   -0.46648  -0.45012  -0.43657  -0.42699  -0.40277
 Alpha  occ. eigenvalues --   -0.39290  -0.38419  -0.37091  -0.34668  -0.32502
 Alpha  occ. eigenvalues --   -0.32302  -0.29657  -0.28357  -0.26545
 Alpha virt. eigenvalues --   -0.07070  -0.03665  -0.00485   0.00477   0.01149
 Alpha virt. eigenvalues --    0.02371   0.02546   0.02843   0.03798   0.04378
 Alpha virt. eigenvalues --    0.04779   0.05425   0.05880   0.06651   0.08293

 Mulliken charges:
               1
     1  C   -0.593351
     2  C   -0.354286
     3  C   -0.287464
     4  C    0.106203
     5  C   -0.283951
     6  C    0.619462
     7  H    0.152735
     8  H    0.136945
     9  H    0.148090
    10  H    0.170537
    11  C   -0.109087
    12  O   -0.283934
    13  O   -0.149485
    14  C   -0.148603
    15  H    0.161357
    16  H    0.153978
    17  H    0.161362
    18  Cl   0.399490
 Sum of Mulliken charges =   0.00000

 Dipole moment (field-independent basis, Debye):
    X=              1.5667    Y=              2.9038    Z=              0.0001  Tot=              3.2995
 Quadrupole moment (field-independent basis, Debye-Ang):
   XX=            -62.0973   YY=            -70.6829   ZZ=            -72.6711
   XY=             -0.4727   XZ=              0.0007   YZ=             -0.0003

 ESP charges:
               1
     1  C   -0.055190
     2  C   -0.098591
     3  C   -0.045190
     4  C   -0.150047
     5  C    0.014270
     6  C    0.068195
     7  H    0.095307
     8  H    0.104197
     9  H    0.069540
    10  H    0.077474
    11  C    0.692133
    12  O   -0.520920
    13  O   -0.338480
    14  C   -0.001775
    15  H    0.072789
    16  H    0.077707
    17  H    0.072811
    18  Cl  -0.134231
 Sum of ESP charges =   0.00000

 Summary of Natural Population Analysis:

                                       Natural Population
                Natural  -----------------------------------------------
    Atom  No    Charge         Core      Valence    Rydberg      Total
 -----------------------------------------------------------------------
      C    1   -0.20365      1.99897     4.18569    0.01899     6.20365
      C    2   -0.19039      1.99916     4.17386    0.01737     6.19039
      C    3   -0.16845      1.99909     4.15268    0.01668     6.16845
      C    4   -0.14047      1.99891     4.12272    0.01884     6.14047
      C    5   -0.18243      1.99890     4.16467    0.01886     6.18243
      C    6   -0.04025      1.99858     4.01850    0.02318     6.04025
      H    7    0.22501      0.00000     0.77336    0.00163     0.77499
      H    8    0.21411      0.00000     0.78440    0.00149     0.78589
      H    9    0.22937      0.00000     0.76909    0.00155     0.77063
      H   10    0.24803      0.00000     0.75004    0.00192     0.75197
      C   11    0.79760      1.99929     3.15587    0.04725     5.20240
      O   12   -0.59488      1.99975     6.58373    0.01140     8.59488
      O   13   -0.55245      1.99972     6.53838    0.01435     8.55245
      C   14   -0.21326      1.99925     4.19816    0.01585     6.21326
      H   15    0.18851      0.00000     0.80969    0.00180     0.81149
      H   16    0.18732      0.00000     0.81156    0.00113     0.81268
      H   17    0.18852      0.00000     0.80968    0.00180     0.81148
     Cl   18    0.00777      9.99962     6.97285    0.01976    16.99223
 =======================================================================
   * Total *    0.00000     29.99123    57.77493    0.23384    88.00000

 Normal termination of Gaussian 09 at Fri Jul 23 17:29:18 2021.
