 Gaussian 09, Revision D.01,
 Gaussian 09:  ES64L-G09RevD.01 24-Apr-2013

 ----------------------------------------------------------------------
 # opt freq b3lyp/6-311+g(d,p) geom=connectivity pop=(hirshfeld,chelpg,
 mbs,npa)
 ----------------------------------------------------------------------

 -------------------
 Title Card Required
 -------------------
 Symbolic Z-matrix:
 Charge =  0 Multiplicity = 1

 SCF Done:  E(RB3LYP) =  -1588.76873175     A.U. after   14 cycles
 SCF Done:  E(RB3LYP) =  -1588.77823489     A.U. after   14 cycles
 SCF Done:  E(RB3LYP) =  -1588.78157377     A.U. after   12 cycles
 SCF Done:  E(RB3LYP) =  -1588.78173355     A.U. after   11 cycles
 SCF Done:  E(RB3LYP) =  -1588.78173597     A.U. after   10 cycles
 Optimization completed.
    -- Stationary point found.
 Normal termination of Gaussian 09 at Mon Jan  9 17:15:00 2023.

 ----------------------------------------------------------------------
 #N Geom=AllCheck Guess=TCheck SCRF=Check GenChk RB3LYP/6-311+G(d,p) Fr
 eq
 ----------------------------------------------------------------------

 Structure from the checkpoint file:  "aryltrifluorborates5_Carreira.chk"
 -------------------
 Title Card Required
 -------------------
 Charge =  0 Multiplicity = 1

                         Standard orientation:
 ---------------------------------------------------------------------
 Center     Atomic      Atomic             Coordinates (Angstroms)
 Number     Number       Type             X           Y           Z
 ---------------------------------------------------------------------
      1          6           0        1.090609   -0.515311    0.000005
      2          6           0        0.065897    0.422395    0.000002
      3          6           0        0.299292    1.791366    0.000003
      4          6           0        1.621218    2.230655    0.000000
      5          6           0        2.676147    1.322826    0.000001
      6          6           0        2.398889   -0.041070    0.000004
      7          1           0        0.891096   -1.576325    0.000003
      8          1           0       -0.516625    2.498999    0.000001
      9          1           0        1.828093    3.294033   -0.000005
     10          1           0        3.702656    1.665670   -0.000007
     11         16           0       -1.668697   -0.183762   -0.000003
     12          9           0       -1.353026   -1.303594    1.160697
     13          9           0       -1.353004   -1.303647   -1.160638
     14          9           0       -3.210569   -0.720247   -0.000004
     15          9           0       -2.116067    0.889992   -1.160746
     16          9           0       -2.116093    0.890042    1.160690
     17         17           0        3.718850   -1.192958   -0.000002
 ---------------------------------------------------------------------

 SCF Done:  E(RB3LYP) =  -1588.78173597     A.U. after    1 cycles

 The electronic state is 1-A.
 Alpha  occ. eigenvalues -- -101.58012 -89.23053 -24.72658 -24.72652 -24.72651
 Alpha  occ. eigenvalues --  -24.72635 -24.72635 -10.27674 -10.26433 -10.23380
 Alpha  occ. eigenvalues --  -10.22917 -10.22619 -10.22523  -9.49466  -8.27586
 Alpha  occ. eigenvalues --   -7.25941  -7.24941  -7.24904  -6.24098  -6.24085
 Alpha  occ. eigenvalues --   -6.23548  -1.35002  -1.25713  -1.25643  -1.23152
 Alpha  occ. eigenvalues --   -1.21767  -0.93648  -0.88799  -0.84779  -0.79641
 Alpha  occ. eigenvalues --   -0.77796  -0.68037  -0.66032  -0.64317  -0.63912
 Alpha  occ. eigenvalues --   -0.61056  -0.55839  -0.53378  -0.53254  -0.52189
 Alpha  occ. eigenvalues --   -0.50991  -0.50261  -0.49516  -0.48176  -0.47729
 Alpha  occ. eigenvalues --   -0.46037  -0.45991  -0.45801  -0.44340  -0.43801
 Alpha  occ. eigenvalues --   -0.42937  -0.42721  -0.42548  -0.41004  -0.40073
 Alpha  occ. eigenvalues --   -0.37000  -0.34306  -0.31048  -0.28722
 Alpha virt. eigenvalues --   -0.10591  -0.07373  -0.05892  -0.01397  -0.00360
 Alpha virt. eigenvalues --    0.01290   0.02017   0.02506   0.02926   0.03850
 Alpha virt. eigenvalues --    0.04174   0.04588   0.05173   0.06873   0.07120

 Mulliken charges:
               1
     1  C   -0.256258
     2  C   -1.365804
     3  C    0.479999
     4  C   -0.460153
     5  C   -0.544848
     6  C    0.596890
     7  H    0.178407
     8  H    0.164774
     9  H    0.149794
    10  H    0.159567
    11  S    0.547526
    12  F   -0.000795
    13  F   -0.000792
    14  F   -0.007916
    15  F   -0.020099
    16  F   -0.020106
    17  Cl   0.399816
 Sum of Mulliken charges =   0.00000

 Dipole moment (field-independent basis, Debye):
    X=              3.2529    Y=              2.5682    Z=             -0.0001  Tot=              4.1445
 Quadrupole moment (field-independent basis, Debye-Ang):
   XX=            -91.0489   YY=            -80.1279   ZZ=            -91.4884
   XY=              3.4608   XZ=              0.0001   YZ=              0.0000

  Exact polarizability: 137.946  -5.943 113.822  -0.002   0.009  67.406
 Approx polarizability: 195.647 -12.988 188.485   0.000   0.000 104.096

 ESP charges:
               1
     1  C   -0.058856
     2  C    0.028338
     3  C   -0.086622
     4  C   -0.116598
     5  C   -0.033337
     6  C    0.070719
     7  H    0.136483
     8  H    0.146380
     9  H    0.123334
    10  H    0.100782
    11  S    0.771652
    12  F   -0.208886
    13  F   -0.208882
    14  F   -0.136275
    15  F   -0.212166
    16  F   -0.212166
    17  Cl  -0.103900
 Sum of ESP charges =   0.00000

 Summary of Natural Population Analysis:

                                       Natural Population
                Natural  -----------------------------------------------
    Atom  No    Charge         Core      Valence    Rydberg      Total
 -----------------------------------------------------------------------
      C    1   -0.21906      1.99880     4.19741    0.02286     6.21906
      C    2   -0.16618      1.99869     4.13990    0.02758     6.16618
      C    3   -0.19919      1.99899     4.18082    0.01938     6.19919
      C    4   -0.17422      1.99915     4.15782    0.01726     6.17422
      C    5   -0.20166      1.99897     4.18392    0.01877     6.20166
      C    6   -0.03180      1.99859     4.00948    0.02373     6.03180
      H    7    0.25773      0.00000     0.74039    0.00188     0.74227
      H    8    0.24452      0.00000     0.75384    0.00164     0.75548
      H    9    0.22289      0.00000     0.77573    0.00138     0.77711
      H   10    0.23119      0.00000     0.76719    0.00162     0.76881
      S   11    2.28652      9.99843     3.54206    0.17299    13.71348
      F   12   -0.46264      1.99996     7.45671    0.00597     9.46264
      F   13   -0.46264      1.99996     7.45671    0.00597     9.46264
      F   14   -0.42895      1.99996     7.42200    0.00699     9.42895
      F   15   -0.46267      1.99996     7.45682    0.00589     9.46267
      F   16   -0.46267      1.99996     7.45682    0.00589     9.46267
     Cl   17    0.02883      9.99961     6.95170    0.01986    16.97117
 =======================================================================
   * Total *    0.00000     41.99102    75.64931    0.35966   118.00000

                      1                      2                      3
                      A                      A                      A
 Frequencies --     29.5002               103.4721               123.6867
 Red. masses --     10.9641                 7.3639                16.3626
 Frc consts  --      0.0056                 0.0465                 0.1475
 IR Inten    --      0.4482                 0.0036                 0.8143

                      4                      5                      6
                      A                      A                      A
 Frequencies --    189.0120               209.6716               258.6630
 Red. masses --      5.3000                16.7159                 7.1865
 Frc consts  --      0.1116                 0.4330                 0.2833
 IR Inten    --      0.0243                 0.4679                 0.0118

                      7                      8                      9
                      A                      A                      A
 Frequencies --    277.9597               313.9771               347.2081
 Red. masses --      9.1438                18.8217                 8.6086
 Frc consts  --      0.4162                 1.0932                 0.6115
 IR Inten    --      7.0652                 0.0001                 1.2285

                     10                     11                     12
                      A                      A                      A
 Frequencies --    364.9724               392.5180               424.0239
 Red. masses --      9.3549                 9.4422                18.9364
 Frc consts  --      0.7342                 0.8571                 2.0060
 IR Inten    --      0.4544                 2.2226                 0.0818

                     13                     14                     15
                      A                      A                      A
 Frequencies --    446.8318               448.6205               504.1914
 Red. masses --      8.8350                 3.3062                16.2780
 Frc consts  --      1.0393                 0.3920                 2.4380
 IR Inten    --      4.4272                 2.9886                 7.8304

                     16                     17                     18
                      A                      A                      A
 Frequencies --    510.9947               539.1600               543.2170
 Red. masses --     16.5162                18.7897                18.9061
 Frc consts  --      2.5409                 3.2181                 3.2870
 IR Inten    --      4.2005                 0.0060                43.4986

                     19                     20                     21
                      A                      A                      A
 Frequencies --    575.3173               592.6115               656.2347
 Red. masses --      6.4689                19.3575                 7.6971
 Frc consts  --      1.2615                 4.0053                 1.9530
 IR Inten    --      0.5866                18.7605                27.6862

                     22                     23                     24
                      A                      A                      A
 Frequencies --    685.9800               721.1015               787.8576
 Red. masses --      2.4860                11.2077                 8.0121
 Frc consts  --      0.6893                 3.4337                 2.9302
 IR Inten    --      7.4866               284.0500               424.7751

                     25                     26                     27
                      A                      A                      A
 Frequencies --    790.3438               792.0344               817.0161
 Red. masses --      1.5512                22.8645                13.3981
 Frc consts  --      0.5709                 8.4508                 5.2693
 IR Inten    --      0.1991               323.3405               183.8263

                     28                     29                     30
                      A                      A                      A
 Frequencies --    890.2985               925.8117               998.0678
 Red. masses --      1.4217                 1.3584                 1.3273
 Frc consts  --      0.6640                 0.6860                 0.7790
 IR Inten    --     13.2366                 0.0428                 0.1158

                     31                     32                     33
                      A                      A                      A
 Frequencies --   1010.3558              1091.0033              1104.7821
 Red. masses --      6.4816                 3.8356                 1.7755
 Frc consts  --      3.8983                 2.6899                 1.2768
 IR Inten    --      3.7461                23.4815                15.5582

                     34                     35                     36
                      A                      A                      A
 Frequencies --   1130.3305              1197.2471              1303.7703
 Red. masses --      1.8855                 1.1286                 1.8734
 Frc consts  --      1.4193                 0.9531                 1.8763
 IR Inten    --     37.7566                 0.2713                 0.7468

                     37                     38                     39
                      A                      A                      A
 Frequencies --   1336.2241              1448.8970              1494.7079
 Red. masses --      2.5640                 2.7456                 2.1119
 Frc consts  --      2.6973                 3.3959                 2.7800
 IR Inten    --      4.5666                23.9174                48.9261

                     40                     41                     42
                      A                      A                      A
 Frequencies --   1609.3055              1622.7731              3188.1387
 Red. masses --      6.0200                 6.4036                 1.0890
 Frc consts  --      9.1860                 9.9356                 6.5217
 IR Inten    --     13.9562                27.6051                 2.7758

                     43                     44                     45
                      A                      A                      A
 Frequencies --   3208.5036              3231.8314              3236.8326
 Red. masses --      1.0944                 1.0938                 1.0928
 Frc consts  --      6.6379                 6.7311                 6.7456
 IR Inten    --      0.4841                 2.3330                 6.6018

 - Thermochemistry -
 -------------------
 Temperature   298.150 Kelvin.  Pressure   1.00000 Atm.
 Atom     1 has atomic number  6 and mass  12.00000

 Molecular mass:   237.96424 amu.
 Principal axes and moments of inertia in atomic units:
                           1         2         3
     Eigenvalues --  1444.071324750.452855463.31873
           X            0.99991   0.01307   0.00000
           Y           -0.01307   0.99991   0.00000
           Z            0.00000   0.00000   1.00000
 This molecule is an asymmetric top.
 Rotational symmetry number  1.
 Warning -- assumption of classical behavior for rotation
           may cause significant error
 Rotational temperatures (Kelvin)      0.05998     0.01823     0.01585
 Rotational constants (GHZ):           1.24976     0.37991     0.33034
 Zero-point vibrational energy     254057.3 (Joules/Mol)
                                   60.72114 (Kcal/Mol)
 Warning -- explicit consideration of  20 degrees of freedom as
           vibrations may cause significant error
 Vibrational temperatures:     42.44   148.87   177.96   271.95   301.67
          (Kelvin)            372.16   399.92   451.74   499.55   525.11
                              564.75   610.07   642.89   645.46   725.42
                              735.21   775.73   781.57   827.75   852.63
                              944.17   986.97  1037.50  1133.55  1137.13
                             1139.56  1175.50  1280.94  1332.03  1436.00
                             1453.67  1569.71  1589.53  1626.29  1722.57
                             1875.83  1922.53  2084.64  2150.55  2315.43
                             2334.81  4587.01  4616.32  4649.88  4657.07

 Zero-point correction=                           0.096765 (Hartree/Particle)
 Thermal correction to Energy=                    0.108331
 Thermal correction to Enthalpy=                  0.109276
 Thermal correction to Gibbs Free Energy=         0.058378
 Sum of electronic and zero-point Energies=          -1588.684971
 Sum of electronic and thermal Energies=             -1588.673404
 Sum of electronic and thermal Enthalpies=           -1588.672460
 Sum of electronic and thermal Free Energies=        -1588.723358

                     E (Thermal)             CV                S
                      KCal/Mol        Cal/Mol-Kelvin    Cal/Mol-Kelvin
 Total                   67.979             44.768            107.124
 Electronic               0.000              0.000              0.000
 Translational            0.889              2.981             42.302
 Rotational               0.889              2.981             31.994
 Vibrational             66.202             38.806             32.827
 Vibration     1          0.593              1.984              5.863
 Vibration     2          0.605              1.946              3.388
 Vibration     3          0.610              1.929              3.042
 Vibration     4          0.633              1.855              2.238
 Vibration     5          0.642              1.826              2.047
 Vibration     6          0.667              1.748              1.671
 Vibration     7          0.679              1.714              1.546
 Vibration     8          0.702              1.647              1.341
 Vibration     9          0.725              1.581              1.179
 Vibration    10          0.738              1.544              1.101
 Vibration    11          0.760              1.486              0.991
 Vibration    12          0.786              1.418              0.878
 Vibration    13          0.806              1.368              0.805
 Vibration    14          0.808              1.364              0.800
 Vibration    15          0.859              1.241              0.648
 Vibration    16          0.866              1.226              0.631
 Vibration    17          0.894              1.163              0.567
 Vibration    18          0.898              1.155              0.558
 Vibration    19          0.932              1.085              0.494
 Vibration    20          0.950              1.048              0.463

 Optimization completed.
    -- Stationary point found.
 Normal termination of Gaussian 09 at Mon Jan  9 17:17:42 2023.
