 Gaussian 09, Revision D.01,
 Gaussian 09:  ES64L-G09RevD.01 24-Apr-2013

 ----------------------------------------------------------------------
 # opt freq b3lyp/6-311+g(d,p) geom=connectivity pop=(hirshfeld,chelpg,
 mbs,npa)
 ----------------------------------------------------------------------

 -------------------
 Title Card Required
 -------------------
 Symbolic Z-matrix:
 Charge =  0 Multiplicity = 1

 SCF Done:  E(RB3LYP) =  -315.787632124     A.U. after   11 cycles
 SCF Done:  E(RB3LYP) =  -315.800323678     A.U. after   10 cycles
 SCF Done:  E(RB3LYP) =  -315.801939526     A.U. after   10 cycles
 SCF Done:  E(RB3LYP) =  -315.802105284     A.U. after    9 cycles
 SCF Done:  E(RB3LYP) =  -315.802115838     A.U. after    8 cycles
 SCF Done:  E(RB3LYP) =  -315.802118270     A.U. after    7 cycles
 Optimization completed.
    -- Stationary point found.
 Normal termination of Gaussian 09 at Tue Feb 22 09:17:13 2022.

 ----------------------------------------------------------------------
 #N Geom=AllCheck Guess=TCheck SCRF=Check GenChk RB3LYP/6-311+G(d,p) Fr
 eq
 ----------------------------------------------------------------------

 Structure from the checkpoint file:  "Chart3_1.chk"
 -------------------
 Title Card Required
 -------------------
 Charge =  0 Multiplicity = 1

                         Standard orientation:
 ---------------------------------------------------------------------
 Center     Atomic      Atomic             Coordinates (Angstroms)
 Number     Number       Type             X           Y           Z
 ---------------------------------------------------------------------
      1          6           0       -1.652192   -0.367124    0.158972
      2          6           0       -2.888211    0.439546   -0.255052
      3          1           0       -1.718756   -1.374691   -0.272040
      4          1           0       -1.659158   -0.503297    1.248412
      5          6           0       -4.207636   -0.213748    0.166711
      6          1           0       -2.824248    1.445278    0.178124
      7          1           0       -2.880852    0.577123   -1.343264
      8          1           0       -5.068209    0.386004   -0.142766
      9          1           0       -4.317884   -1.207136   -0.279848
     10          1           0       -4.260164   -0.333494    1.253547
     11          6           0       -0.325886    0.277375   -0.261599
     12          6           0        0.902430   -0.538190    0.160857
     13          1           0       -0.272417    1.286101    0.163458
     14          1           0       -0.316964    0.404356   -1.352293
     15          6           0        2.259602    0.006709   -0.323015
     16          1           0        0.924811   -0.621461    1.256461
     17          1           0        0.786775   -1.562191   -0.216748
     18          1           0        2.200847    0.120024   -1.414657
     19          6           0        3.381355   -0.996241   -0.017820
     20          1           0        4.345957   -0.640646   -0.392161
     21          1           0        3.482090   -1.152521    1.062031
     22          1           0        3.181811   -1.969275   -0.476724
     23          6           0        2.589609    1.381920    0.275573
     24          1           0        1.845296    2.136346    0.009724
     25          1           0        2.635562    1.328112    1.369400
     26          1           0        3.561071    1.739888   -0.078417
 ---------------------------------------------------------------------

 SCF Done:  E(RB3LYP) =  -315.802118270     A.U. after    1 cycles

 The electronic state is 1-A.
 Alpha  occ. eigenvalues --  -10.17173 -10.16349 -10.16150 -10.16120 -10.16047
 Alpha  occ. eigenvalues --  -10.15667 -10.15503 -10.15492  -0.81635  -0.78973
 Alpha  occ. eigenvalues --   -0.73947  -0.68266  -0.67335  -0.60766  -0.57709
 Alpha  occ. eigenvalues --   -0.55677  -0.48047  -0.45878  -0.44326  -0.43279
 Alpha  occ. eigenvalues --   -0.42090  -0.41308  -0.39010  -0.38313  -0.37285
 Alpha  occ. eigenvalues --   -0.36049  -0.35292  -0.34245  -0.33390  -0.32455
 Alpha  occ. eigenvalues --   -0.32013  -0.31789  -0.30514
 Alpha virt. eigenvalues --    0.00498   0.01313   0.01896   0.02335   0.03087
 Alpha virt. eigenvalues --    0.03716   0.04371   0.05401   0.05438   0.05953
 Alpha virt. eigenvalues --    0.06069   0.07061   0.07832   0.07905   0.08066

 Mulliken charges:
               1
     1  C   -0.295316
     2  C   -0.198126
     3  H    0.137110
     4  H    0.137683
     5  C   -0.621843
     6  H    0.134637
     7  H    0.134985
     8  H    0.136556
     9  H    0.132260
    10  H    0.132296
    11  C   -0.147168
    12  C   -0.304190
    13  H    0.132959
    14  H    0.135473
    15  C    0.307603
    16  H    0.140357
    17  H    0.135097
    18  H    0.125035
    19  C   -0.596354
    20  H    0.133740
    21  H    0.135836
    22  H    0.133357
    23  C   -0.566028
    24  H    0.137285
    25  H    0.135441
    26  H    0.131317
 Sum of Mulliken charges =   0.00000

 Dipole moment (field-independent basis, Debye):
    X=             -0.0322    Y=              0.0482    Z=             -0.1254  Tot=              0.1381
 Quadrupole moment (field-independent basis, Debye-Ang):
   XX=            -57.3398   YY=            -56.5593   ZZ=            -55.4639
   XY=             -0.1109   XZ=             -0.1540   YZ=              0.4325

  Exact polarizability: 119.223  -0.112  93.283  -0.187  -1.010  85.859
 Approx polarizability: 131.448   0.383 131.729  -0.030  -0.822 131.189

 ESP charges:
               1
     1  C    0.026357
     2  C    0.179506
     3  H   -0.004621
     4  H   -0.012314
     5  C   -0.182389
     6  H   -0.042988
     7  H   -0.040451
     8  H    0.040166
     9  H    0.029778
    10  H    0.033215
    11  C   -0.042071
    12  C   -0.030235
    13  H    0.009546
    14  H   -0.007991
    15  C    0.440625
    16  H   -0.009936
    17  H   -0.013848
    18  H   -0.081205
    19  C   -0.369219
    20  H    0.079480
    21  H    0.066182
    22  H    0.068436
    23  C   -0.300434
    24  H    0.044934
    25  H    0.062700
    26  H    0.056778
 Sum of ESP charges =   0.00000

 Summary of Natural Population Analysis:

                                       Natural Population
                Natural  -----------------------------------------------
    Atom  No    Charge         Core      Valence    Rydberg      Total
 -----------------------------------------------------------------------
      C    1   -0.37789      1.99928     4.36419    0.01442     6.37789
      C    2   -0.38222      1.99931     4.36984    0.01306     6.38222
      H    3    0.18733      0.00000     0.81036    0.00231     0.81267
      H    4    0.18805      0.00000     0.80969    0.00226     0.81195
      C    5   -0.57257      1.99938     4.56405    0.00914     6.57257
      H    6    0.18751      0.00000     0.81019    0.00230     0.81249
      H    7    0.18753      0.00000     0.81018    0.00229     0.81247
      H    8    0.19911      0.00000     0.79967    0.00122     0.80089
      H    9    0.19275      0.00000     0.80553    0.00172     0.80725
      H   10    0.19279      0.00000     0.80549    0.00172     0.80721
      C   11   -0.38028      1.99928     4.36703    0.01397     6.38028
      C   12   -0.37519      1.99925     4.35983    0.01611     6.37519
      H   13    0.19026      0.00000     0.80744    0.00230     0.80974
      H   14    0.18823      0.00000     0.80928    0.00249     0.81177
      C   15   -0.22752      1.99926     4.21495    0.01331     6.22752
      H   16    0.18895      0.00000     0.80885    0.00221     0.81105
      H   17    0.19266      0.00000     0.80540    0.00194     0.80734
      H   18    0.18258      0.00000     0.81365    0.00377     0.81742
      C   19   -0.56879      1.99934     4.55920    0.01024     6.56879
      H   20    0.19840      0.00000     0.80037    0.00122     0.80160
      H   21    0.19333      0.00000     0.80506    0.00161     0.80667
      H   22    0.19826      0.00000     0.80051    0.00123     0.80174
      C   23   -0.57508      1.99934     4.56522    0.01051     6.57508
      H   24    0.19957      0.00000     0.79918    0.00125     0.80043
      H   25    0.19304      0.00000     0.80535    0.00162     0.80696
      H   26    0.19919      0.00000     0.79960    0.00121     0.80081
 =======================================================================
   * Total *    0.00000     15.99444    49.87010    0.13545    66.00000

                      1                      2                      3
                      A                      A                      A
 Frequencies --     45.1776                62.8523                97.1035
 Red. masses --      1.9619                 2.2587                 2.9657
 Frc consts  --      0.0024                 0.0053                 0.0165
 IR Inten    --      0.0083                 0.0032                 0.0006

                      4                      5                      6
                      A                      A                      A
 Frequencies --    129.9578               135.3802               218.1727
 Red. masses --      1.6764                 2.1396                 1.1057
 Frc consts  --      0.0167                 0.0231                 0.0310
 IR Inten    --      0.0018                 0.0129                 0.0079

                      7                      8                      9
                      A                      A                      A
 Frequencies --    233.6261               242.9869               246.6505
 Red. masses --      2.1181                 1.1433                 1.2335
 Frc consts  --      0.0681                 0.0398                 0.0442
 IR Inten    --      0.0068                 0.0014                 0.0008

                     10                     11                     12
                      A                      A                      A
 Frequencies --    282.2331               373.6829               403.4990
 Red. masses --      2.6303                 2.4682                 2.2229
 Frc consts  --      0.1234                 0.2031                 0.2132
 IR Inten    --      0.0169                 0.0213                 0.0474

                     13                     14                     15
                      A                      A                      A
 Frequencies --    451.3213               493.3625               732.1760
 Red. masses --      2.1090                 2.8225                 1.0711
 Frc consts  --      0.2531                 0.4048                 0.3383
 IR Inten    --      0.0791                 0.3760                 3.1059

                     16                     17                     18
                      A                      A                      A
 Frequencies --    757.9276               813.1758               845.9562
 Red. masses --      1.1566                 2.3247                 1.2853
 Frc consts  --      0.3914                 0.9057                 0.5420
 IR Inten    --      0.1051                 0.5528                 0.7244

                     19                     20                     21
                      A                      A                      A
 Frequencies --    898.7009               927.2856               941.0779
 Red. masses --      1.9733                 1.2090                 1.5172
 Frc consts  --      0.9390                 0.6125                 0.7916
 IR Inten    --      2.3789                 0.8023                 0.7260

                     22                     23                     24
                      A                      A                      A
 Frequencies --    959.8921               966.9500              1006.4029
 Red. masses --      1.3667                 1.5517                 3.8879
 Frc consts  --      0.7419                 0.8548                 2.3201
 IR Inten    --      0.2073                 0.1921                 0.2581

                     25                     26                     27
                      A                      A                      A
 Frequencies --   1045.7542              1054.8654              1063.1644
 Red. masses --      1.5370                 1.8529                 2.3010
 Frc consts  --      0.9903                 1.2148                 1.5324
 IR Inten    --      1.1022                 0.4351                 0.1148

                     28                     29                     30
                      A                      A                      A
 Frequencies --   1100.5876              1158.8357              1189.0964
 Red. masses --      1.9047                 2.4656                 1.7827
 Frc consts  --      1.3593                 1.9509                 1.4851
 IR Inten    --      1.5162                 1.8612                 4.3672

                     31                     32                     33
                      A                      A                      A
 Frequencies --   1199.5428              1238.6808              1265.0319
 Red. masses --      2.0032                 1.4949                 1.2858
 Frc consts  --      1.6983                 1.3514                 1.2124
 IR Inten    --      0.2285                 0.8896                 0.5379

                     34                     35                     36
                      A                      A                      A
 Frequencies --   1299.8722              1324.6126              1332.0093
 Red. masses --      1.2650                 1.2653                 1.0605
 Frc consts  --      1.2593                 1.3080                 1.1086
 IR Inten    --      0.8001                 0.1386                 0.3901

                     37                     38                     39
                      A                      A                      A
 Frequencies --   1334.3754              1360.9720              1370.2004
 Red. masses --      1.1394                 1.3792                 1.3170
 Frc consts  --      1.1954                 1.5051                 1.4568
 IR Inten    --      0.2415                 2.3373                 3.8894

                     40                     41                     42
                      A                      A                      A
 Frequencies --   1393.2912              1396.7982              1401.4774
 Red. masses --      1.4754                 1.5122                 1.3186
 Frc consts  --      1.6875                 1.7383                 1.5259
 IR Inten    --      0.3727                 2.9516                 7.5425

                     43                     44                     45
                      A                      A                      A
 Frequencies --   1412.2614              1421.1189              1479.3679
 Red. masses --      1.2460                 1.2451                 1.0721
 Frc consts  --      1.4642                 1.4815                 1.3825
 IR Inten    --      2.4074                 6.4452                 0.3408

                     46                     47                     48
                      A                      A                      A
 Frequencies --   1486.0604              1489.1240              1490.9908
 Red. masses --      1.0721                 1.0453                 1.0605
 Frc consts  --      1.3949                 1.3657                 1.3891
 IR Inten    --      0.0668                 0.9299                 0.5607

                     49                     50                     51
                      A                      A                      A
 Frequencies --   1495.8700              1499.2724              1503.3922
 Red. masses --      1.0600                 1.0400                 1.0782
 Frc consts  --      1.3974                 1.3774                 1.4358
 IR Inten    --      2.7776                 7.6633                 0.0475

                     52                     53                     54
                      A                      A                      A
 Frequencies --   1504.7790              1510.7381              1513.9856
 Red. masses --      1.0543                 1.0577                 1.0859
 Frc consts  --      1.4066                 1.4223                 1.4664
 IR Inten    --      6.3527                 7.5204                15.6681

                     55                     56                     57
                      A                      A                      A
 Frequencies --   2981.6422              2989.6498              2992.8883
 Red. masses --      1.0780                 1.0636                 1.0586
 Frc consts  --      5.6467                 5.6012                 5.5866
 IR Inten    --      4.5460                 8.6244                 2.8693

                     58                     59                     60
                      A                      A                      A
 Frequencies --   3000.2237              3007.7419              3010.9450
 Red. masses --      1.0631                 1.0666                 1.0386
 Frc consts  --      5.6381                 5.6849                 5.5476
 IR Inten    --     15.0209                70.5637                29.6196

                     61                     62                     63
                      A                      A                      A
 Frequencies --   3013.1919              3016.5912              3017.3298
 Red. masses --      1.0870                 1.0408                 1.0362
 Frc consts  --      5.8146                 5.5802                 5.5584
 IR Inten    --     28.6370                43.4744                42.1100

                     64                     65                     66
                      A                      A                      A
 Frequencies --   3018.7171              3034.7149              3052.8188
 Red. masses --      1.0957                 1.1030                 1.1040
 Frc consts  --      5.8831                 5.9852                 6.0620
 IR Inten    --      6.7008                 2.5493                85.0768

                     67                     68                     69
                      A                      A                      A
 Frequencies --   3069.1677              3075.5989              3077.8868
 Red. masses --      1.1001                 1.0997                 1.1024
 Frc consts  --      6.1056                 6.1291                 6.1531
 IR Inten    --      6.8325                68.5976                85.5318

                     70                     71                     72
                      A                      A                      A
 Frequencies --   3080.3061              3082.0167              3091.0067
 Red. masses --      1.1014                 1.1009                 1.0994
 Frc consts  --      6.1574                 6.1615                 6.1888
 IR Inten    --     53.2645                46.8333                40.7128

 - Thermochemistry -
 -------------------
 Temperature   298.150 Kelvin.  Pressure   1.00000 Atm.
 Atom     1 has atomic number  6 and mass  12.00000

 Molecular mass:   114.14085 amu.
 Principal axes and moments of inertia in atomic units:
                           1         2         3
     Eigenvalues --   316.607962894.247883076.34334
           X            1.00000   0.00095   0.00056
           Y           -0.00094   0.99999  -0.00363
           Z           -0.00056   0.00363   0.99999
 This molecule is an asymmetric top.
 Rotational symmetry number  1.
 Rotational temperatures (Kelvin)      0.27357     0.02993     0.02815
 Rotational constants (GHZ):           5.70024     0.62356     0.58665
 Zero-point vibrational energy     641282.8 (Joules/Mol)
                                  153.27027 (Kcal/Mol)
 Warning -- explicit consideration of  14 degrees of freedom as
           vibrations may cause significant error
 Vibrational temperatures:     65.00    90.43   139.71   186.98   194.78
          (Kelvin)            313.90   336.14   349.60   354.87   406.07
                              537.65   580.54   649.35   709.84  1053.44
                             1090.49  1169.98  1217.14  1293.03  1334.16
                             1354.00  1381.07  1391.22  1447.99  1504.61
                             1517.71  1529.65  1583.50  1667.30  1710.84
                             1725.87  1782.18  1820.10  1870.22  1905.82
                             1916.46  1919.87  1958.13  1971.41  2004.63
                             2009.68  2016.41  2031.93  2044.67  2128.48
                             2138.11  2142.51  2145.20  2152.22  2157.12
                             2163.04  2165.04  2173.61  2178.28  4289.91
                             4301.43  4306.09  4316.65  4327.46  4332.07
                             4335.31  4340.20  4341.26  4343.26  4366.27
                             4392.32  4415.84  4425.10  4428.39  4431.87
                             4434.33  4447.26

 Zero-point correction=                           0.244252 (Hartree/Particle)
 Thermal correction to Energy=                    0.255375
 Thermal correction to Enthalpy=                  0.256319
 Thermal correction to Gibbs Free Energy=         0.207371
 Sum of electronic and zero-point Energies=           -315.557867
 Sum of electronic and thermal Energies=              -315.546743
 Sum of electronic and thermal Enthalpies=            -315.545799
 Sum of electronic and thermal Free Energies=         -315.594747

                     E (Thermal)             CV                S
                      KCal/Mol        Cal/Mol-Kelvin    Cal/Mol-Kelvin
 Total                  160.250             39.797            103.020
 Electronic               0.000              0.000              0.000
 Translational            0.889              2.981             40.112
 Rotational               0.889              2.981             29.423
 Vibrational            158.473             33.835             33.485
 Vibration     1          0.595              1.979              5.018
 Vibration     2          0.597              1.972              4.366
 Vibration     3          0.603              1.951              3.512
 Vibration     4          0.612              1.923              2.947
 Vibration     5          0.613              1.918              2.868
 Vibration     6          0.646              1.813              1.974
 Vibration     7          0.654              1.789              1.851
 Vibration     8          0.659              1.774              1.781
 Vibration     9          0.661              1.768              1.754
 Vibration    10          0.681              1.707              1.520
 Vibration    11          0.745              1.526              1.065
 Vibration    12          0.769              1.463              0.950
 Vibration    13          0.810              1.358              0.792
 Vibration    14          0.849              1.265              0.675

 Optimization completed.
    -- Stationary point found.
 Normal termination of Gaussian 09 at Tue Feb 22 09:20:30 2022.
