 Gaussian 09, Revision D.01,
 Gaussian 09:  ES64L-G09RevD.01 24-Apr-2013

 ----------------------------------------------------------------------
 # opt freq b3lyp/6-311+g(d,p) geom=connectivity pop=(hirshfeld,chelpg,
 mbs,npa)
 ----------------------------------------------------------------------

 --------
 Table5_6
 --------
 Symbolic Z-matrix:
 Charge =  0 Multiplicity = 1

 SCF Done:  E(RB3LYP) =  -383.758789823     A.U. after   14 cycles
 SCF Done:  E(RB3LYP) =  -383.772047723     A.U. after   13 cycles
 SCF Done:  E(RB3LYP) =  -383.773673710     A.U. after   11 cycles
 SCF Done:  E(RB3LYP) =  -383.773780068     A.U. after   11 cycles
 SCF Done:  E(RB3LYP) =  -383.773792233     A.U. after    9 cycles
 SCF Done:  E(RB3LYP) =  -383.773793855     A.U. after    9 cycles
 SCF Done:  E(RB3LYP) =  -383.773793912     A.U. after    8 cycles
 Optimization completed.
    -- Stationary point found.
 Normal termination of Gaussian 09 at Wed Nov 17 16:12:23 2021.

 ----------------------------------------------------------------------
 #N Geom=AllCheck Guess=TCheck SCRF=Check GenChk RB3LYP/6-311+G(d,p) Fr
 eq
 ----------------------------------------------------------------------

 Structure from the checkpoint file:  "Table5_6.chk"
 --------
 Table5_6
 --------
 Charge =  0 Multiplicity = 1

                         Standard orientation:
 ---------------------------------------------------------------------
 Center     Atomic      Atomic             Coordinates (Angstroms)
 Number     Number       Type             X           Y           Z
 ---------------------------------------------------------------------
      1          6           0        0.249375   -0.651442   -0.000155
      2          6           0        0.257303    0.753755   -0.000054
      3          6           0       -0.966603    1.436837    0.000101
      4          6           0       -2.139700    0.691779    0.000135
      5          6           0       -2.112815   -0.714125    0.000050
      6          6           0       -0.909384   -1.414132   -0.000085
      7          6           0        2.351172   -0.029714    0.000562
      8          6           0        1.651515    1.128497   -0.000391
      9          1           0       -0.998694    2.520351    0.000089
     10          1           0       -3.096449    1.201244    0.000183
     11          1           0       -3.046755   -1.263926    0.000067
     12          1           0       -0.872515   -2.496300   -0.000131
     13          1           0        3.407045   -0.244203    0.000906
     14          1           0        2.069104    2.122956   -0.000729
     15          8           0        1.531636   -1.131107   -0.000170
 ---------------------------------------------------------------------

 SCF Done:  E(RB3LYP) =  -383.773793912     A.U. after    1 cycles

 The electronic state is 1-A.
 Alpha  occ. eigenvalues --  -19.19291 -10.23734 -10.23432 -10.18854 -10.18490
 Alpha  occ. eigenvalues --  -10.18395 -10.18306 -10.18185 -10.17824  -1.11815
 Alpha  occ. eigenvalues --   -0.86558  -0.80877  -0.75769  -0.73864  -0.64217
 Alpha  occ. eigenvalues --   -0.61002  -0.59354  -0.53058  -0.50382  -0.48969
 Alpha  occ. eigenvalues --   -0.46488  -0.44989  -0.43527  -0.41700  -0.39741
 Alpha  occ. eigenvalues --   -0.37566  -0.36132  -0.35002  -0.30470  -0.24953
 Alpha  occ. eigenvalues --   -0.23343
 Alpha virt. eigenvalues --   -0.03518  -0.00479   0.00567   0.01349   0.02204
 Alpha virt. eigenvalues --    0.02777   0.03556   0.03890   0.05142   0.05431
 Alpha virt. eigenvalues --    0.06704   0.06928   0.07918   0.08418   0.09980

 Mulliken charges:
               1
     1  C   -0.972331
     2  C    1.654996
     3  C   -0.713117
     4  C    0.011508
     5  C   -0.267160
     6  C   -0.210433
     7  C    0.106994
     8  C   -0.306464
     9  H    0.123051
    10  H    0.125716
    11  H    0.128548
    12  H    0.127507
    13  H    0.138888
    14  H    0.128983
    15  O   -0.076686
 Sum of Mulliken charges =   0.00000

 Dipole moment (field-independent basis, Debye):
    X=              0.2280    Y=              0.7811    Z=              0.0003  Tot=              0.8137
 Quadrupole moment (field-independent basis, Debye-Ang):
   XX=            -44.7715   YY=            -48.1071   ZZ=            -56.6160
   XY=              2.2424   XZ=              0.0018   YZ=             -0.0017

  Exact polarizability: 127.464   1.071  96.597   0.003  -0.002  52.682
 Approx polarizability: 203.718  -5.883 169.601   0.013  -0.008  79.246

 ESP charges:
               1
     1  C    0.255129
     2  C    0.266356
     3  C   -0.304241
     4  C   -0.070231
     5  C   -0.110454
     6  C   -0.213170
     7  C    0.080567
     8  C   -0.384956
     9  H    0.151342
    10  H    0.088839
    11  H    0.098495
    12  H    0.137569
    13  H    0.128451
    14  H    0.168334
    15  O   -0.292030
 Sum of ESP charges =   0.00000

 Summary of Natural Population Analysis:

                                       Natural Population
                Natural  -----------------------------------------------
    Atom  No    Charge         Core      Valence    Rydberg      Total
 -----------------------------------------------------------------------
      C    1    0.30765      1.99871     3.66922    0.02442     5.69235
      C    2   -0.11739      1.99897     4.10193    0.01649     6.11739
      C    3   -0.18784      1.99908     4.17194    0.01682     6.18784
      C    4   -0.21664      1.99918     4.19945    0.01801     6.21664
      C    5   -0.20255      1.99919     4.18537    0.01798     6.20255
      C    6   -0.23869      1.99904     4.22276    0.01689     6.23869
      C    7    0.14827      1.99904     3.82678    0.02591     5.85173
      C    8   -0.29100      1.99908     4.27621    0.01572     6.29100
      H    9    0.20927      0.00000     0.78904    0.00169     0.79073
      H   10    0.20716      0.00000     0.79143    0.00141     0.79284
      H   11    0.20771      0.00000     0.79089    0.00140     0.79229
      H   12    0.22181      0.00000     0.77646    0.00172     0.77819
      H   13    0.20029      0.00000     0.79827    0.00144     0.79971
      H   14    0.22682      0.00000     0.77165    0.00153     0.77318
      O   15   -0.47486      1.99972     6.45859    0.01655     8.47486
 =======================================================================
   * Total *    0.00000     17.99202    43.82999    0.17799    62.00000

                      1                      2                      3
                      A                      A                      A
 Frequencies --    215.4206               250.7735               408.7643
 Red. masses --      4.1225                 4.4415                 4.2248
 Frc consts  --      0.1127                 0.1646                 0.4159
 IR Inten    --      6.1544                 0.2519                 5.6987

                      4                      5                      6
                      A                      A                      A
 Frequencies --    429.9328               548.3460               579.9364
 Red. masses --      2.9272                 7.0151                 3.6956
 Frc consts  --      0.3188                 1.2428                 0.7323
 IR Inten    --      7.7891                 0.6026                 0.2026

                      7                      8                      9
                      A                      A                      A
 Frequencies --    595.5630               622.2788               743.5267
 Red. masses --      3.4223                 6.8348                 1.6269
 Frc consts  --      0.7152                 1.5594                 0.5299
 IR Inten    --      0.0531                 1.3425                 2.0148

                     10                     11                     12
                      A                      A                      A
 Frequencies --    759.1725               777.7684               778.7773
 Red. masses --      1.4155                 2.0500                 5.2593
 Frc consts  --      0.4807                 0.7307                 1.8793
 IR Inten    --    100.9666                32.3736                 5.6565

                     13                     14                     15
                      A                      A                      A
 Frequencies --    864.4535               870.1344               876.7405
 Red. masses --      1.4253                 5.8389                 1.3467
 Frc consts  --      0.6276                 2.6047                 0.6099
 IR Inten    --      0.2748                 9.3113                 0.8135

                     16                     17                     18
                      A                      A                      A
 Frequencies --    913.5442               948.0274               984.7091
 Red. masses --      4.6387                 1.3682                 1.2766
 Frc consts  --      2.2809                 0.7245                 0.7293
 IR Inten    --      3.2032                 2.9423                 0.0006

                     19                     20                     21
                      A                      A                      A
 Frequencies --   1028.8752              1052.7586              1123.7049
 Red. masses --      2.0835                 2.2510                 1.8451
 Frc consts  --      1.2995                 1.4699                 1.3727
 IR Inten    --      6.3534                19.9304                16.0984

                     22                     23                     24
                      A                      A                      A
 Frequencies --   1148.4486              1174.3654              1191.2485
 Red. masses --      1.5620                 1.1889                 2.1417
 Frc consts  --      1.2138                 0.9661                 1.7907
 IR Inten    --     20.4710                 0.9097                21.7527

                     25                     26                     27
                      A                      A                      A
 Frequencies --   1269.7774              1291.1945              1357.6779
 Red. masses --      3.6034                 1.5747                 2.2543
 Frc consts  --      3.4231                 1.5468                 2.4483
 IR Inten    --     35.6598                 0.1899                 3.8680

                     28                     29                     30
                      A                      A                      A
 Frequencies --   1386.1363              1476.5627              1504.0793
 Red. masses --      3.7308                 2.4899                 2.7041
 Frc consts  --      4.2234                 3.1984                 3.6042
 IR Inten    --      1.3975                32.6601                 4.3507

                     31                     32                     33
                      A                      A                      A
 Frequencies --   1570.3260              1624.3529              1652.2465
 Red. masses --      4.5845                 6.5187                 7.1167
 Frc consts  --      6.6607                10.1338                11.4467
 IR Inten    --     13.1350                 0.1527                 0.5008

                     34                     35                     36
                      A                      A                      A
 Frequencies --   3167.9787              3179.1996              3189.6628
 Red. masses --      1.0859                 1.0899                 1.0947
 Frc consts  --      6.4211                 6.4907                 6.5618
 IR Inten    --      0.8594                 9.8128                17.7710

                     37                     38                     39
                      A                      A                      A
 Frequencies --   3201.4002              3244.1239              3273.9145
 Red. masses --      1.0957                 1.0918                 1.1047
 Frc consts  --      6.6164                 6.7703                 6.9763
 IR Inten    --      5.5635                 1.7076                 0.3878

 - Thermochemistry -
 -------------------
 Temperature   298.150 Kelvin.  Pressure   1.00000 Atm.
 Atom     1 has atomic number  6 and mass  12.00000

 Molecular mass:   118.04186 amu.
 Principal axes and moments of inertia in atomic units:
                           1         2         3
     Eigenvalues --   459.096571087.691661546.78817
           X            0.99983   0.01863   0.00000
           Y           -0.01863   0.99983  -0.00001
           Z            0.00000   0.00001   1.00000
 This molecule is an asymmetric top.
 Rotational symmetry number  1.
 Warning -- assumption of classical behavior for rotation
           may cause significant error
 Rotational temperatures (Kelvin)      0.18866     0.07963     0.05600
 Rotational constants (GHZ):           3.93107     1.65924     1.16677
 Zero-point vibrational energy     306698.0 (Joules/Mol)
                                   73.30258 (Kcal/Mol)
 Warning -- explicit consideration of   7 degrees of freedom as
           vibrations may cause significant error
 Vibrational temperatures:    309.94   360.81   588.12   618.58   788.95
          (Kelvin)            834.40   856.88   895.32  1069.77  1092.28
                             1119.03  1120.49  1243.75  1251.93  1261.43
                             1314.38  1364.00  1416.77  1480.32  1514.68
                             1616.76  1652.36  1689.65  1713.94  1826.92
                             1857.74  1953.39  1994.34  2124.44  2164.03
                             2259.35  2337.08  2377.21  4558.01  4574.15
                             4589.21  4606.10  4667.56  4710.43

 Zero-point correction=                           0.116815 (Hartree/Particle)
 Thermal correction to Energy=                    0.122801
 Thermal correction to Enthalpy=                  0.123745
 Thermal correction to Gibbs Free Energy=         0.086667
 Sum of electronic and zero-point Energies=           -383.656979
 Sum of electronic and thermal Energies=              -383.650993
 Sum of electronic and thermal Enthalpies=            -383.650049
 Sum of electronic and thermal Free Energies=         -383.687127

                     E (Thermal)             CV                S
                      KCal/Mol        Cal/Mol-Kelvin    Cal/Mol-Kelvin
 Total                   77.059             24.882             78.038
 Electronic               0.000              0.000              0.000
 Translational            0.889              2.981             40.212
 Rotational               0.889              2.981             28.137
 Vibrational             75.281             18.920              9.689
 Vibration     1          0.645              1.818              1.997
 Vibration     2          0.663              1.761              1.725
 Vibration     3          0.773              1.451              0.931
 Vibration     4          0.791              1.405              0.859
 Vibration     5          0.904              1.143              0.548
 Vibration     6          0.937              1.075              0.485
 Vibration     7          0.953              1.041              0.457

 Optimization completed.
    -- Stationary point found.
 Normal termination of Gaussian 09 at Wed Nov 17 16:14:47 2021.
