 Gaussian 09, Revision D.01,
 Gaussian 09:  ES64L-G09RevD.01 24-Apr-2013

 ----------------------------------------------------------------------
 # opt freq=noraman b3lyp/6-311+g(d,p) pop=(npa,hirshfeld,chelpg,mbs) g
 eom=connectivity
 ----------------------------------------------------------------------

 -------------------
 Title Card Required
 -------------------
 Symbolic Z-matrix:
 Charge =  0 Multiplicity = 1

 SCF Done:  E(RB3LYP) =  -894.899223209     A.U. after   23 cycles
 SCF Done:  E(RB3LYP) =  -895.585407828     A.U. after   15 cycles
 SCF Done:  E(RB3LYP) =  -895.638849237     A.U. after   12 cycles
 SCF Done:  E(RB3LYP) =  -895.667550073     A.U. after   14 cycles
 SCF Done:  E(RB3LYP) =  -895.689384025     A.U. after   14 cycles
 SCF Done:  E(RB3LYP) =  -895.696475427     A.U. after   15 cycles
 SCF Done:  E(RB3LYP) =  -895.707961799     A.U. after   13 cycles
 SCF Done:  E(RB3LYP) =  -895.710681925     A.U. after   13 cycles
 SCF Done:  E(RB3LYP) =  -895.716692680     A.U. after   13 cycles
 SCF Done:  E(RB3LYP) =  -895.716737260     A.U. after   12 cycles
 SCF Done:  E(RB3LYP) =  -895.739064084     A.U. after    9 cycles
 SCF Done:  E(RB3LYP) =  -895.739267517     A.U. after   11 cycles
 SCF Done:  E(RB3LYP) =  -895.739808822     A.U. after   11 cycles
 SCF Done:  E(RB3LYP) =  -895.740198988     A.U. after   11 cycles
 SCF Done:  E(RB3LYP) =  -895.740298728     A.U. after   10 cycles
 SCF Done:  E(RB3LYP) =  -895.740314818     A.U. after    9 cycles
 SCF Done:  E(RB3LYP) =  -895.740318964     A.U. after    9 cycles
 SCF Done:  E(RB3LYP) =  -895.740321297     A.U. after    9 cycles
 SCF Done:  E(RB3LYP) =  -895.740321616     A.U. after    7 cycles
 Optimization completed.
    -- Stationary point found.
 Normal termination of Gaussian 09 at Tue Aug 27 14:25:02 2024.

 ----------------------------------------------------------------------
 #N Geom=AllCheck Guess=TCheck SCRF=Check GenChk RB3LYP/6-311+G(d,p) Fr
 eq
 ----------------------------------------------------------------------

 Structure from the checkpoint file:  "Figure2_10.chk"
 -------------------
 Title Card Required
 -------------------
 Charge =  0 Multiplicity = 1

                         Standard orientation:
 ---------------------------------------------------------------------
 Center     Atomic      Atomic             Coordinates (Angstroms)
 Number     Number       Type             X           Y           Z
 ---------------------------------------------------------------------
      1          6           0        2.526046   -0.699435   -1.262999
      2          6           0        2.808805   -1.799344   -0.223736
      3          6           0        1.426664   -2.142735    0.353600
      4          6           0        1.333566    0.077123   -0.670256
      5          1           0        3.386606   -0.061425   -1.465874
      6          1           0        2.206692   -1.138830   -2.211238
      7          1           0        3.464396   -1.417752    0.559998
      8          1           0        3.289891   -2.672506   -0.666751
      9          1           0        0.962567   -2.994168   -0.152309
     10          1           0        1.458773   -2.371396    1.420014
     11          1           0        0.687931    0.506382   -1.436642
     12          7           0        0.619825   -0.931143    0.104225
     13          6           0       -0.745872   -1.006285    0.240831
     14          8           0       -1.301125   -1.954598    0.759860
     15          8           0       -1.349173    0.081863   -0.280927
     16          6           0       -2.809818    0.288338   -0.160581
     17          6           0       -3.005243    1.647885   -0.832201
     18          1           0       -4.061570    1.926152   -0.808495
     19          1           0       -2.430529    2.419133   -0.315169
     20          1           0       -2.681233    1.613730   -1.875058
     21          6           0       -3.207274    0.350667    1.315861
     22          1           0       -4.260369    0.634313    1.394356
     23          1           0       -3.069124   -0.612010    1.805963
     24          1           0       -2.612801    1.104610    1.837819
     25          6           0       -3.558330   -0.808241   -0.921707
     26          1           0       -3.412262   -1.782119   -0.457278
     27          1           0       -4.627443   -0.578489   -0.929064
     28          1           0       -3.215551   -0.853609   -1.958904
     29          6           0        1.785637    1.262226    0.194164
     30          9           0        2.672258    0.906933    1.154067
     31          9           0        0.760536    1.871986    0.815964
     32          9           0        2.395267    2.194043   -0.581171
 ---------------------------------------------------------------------

 SCF Done:  E(RB3LYP) =  -895.740321616     A.U. after    1 cycles

 The electronic state is 1-A.
 Alpha  occ. eigenvalues --  -24.71775 -24.71770 -24.71571 -19.16002 -19.09646
 Alpha  occ. eigenvalues --  -14.35365 -10.42910 -10.32245 -10.24946 -10.24837
 Alpha  occ. eigenvalues --  -10.21502 -10.19902 -10.18863 -10.16712 -10.16227
 Alpha  occ. eigenvalues --  -10.16099  -1.32336  -1.23525  -1.23506  -1.10785
 Alpha  occ. eigenvalues --   -1.01973  -0.96676  -0.82886  -0.80539  -0.78615
 Alpha  occ. eigenvalues --   -0.71045  -0.70047  -0.69864  -0.67044  -0.63403
 Alpha  occ. eigenvalues --   -0.61324  -0.60416  -0.59435  -0.58696  -0.54531
 Alpha  occ. eigenvalues --   -0.51677  -0.49307  -0.48493  -0.48067  -0.47728
 Alpha  occ. eigenvalues --   -0.47345  -0.46259  -0.45127  -0.44587  -0.43759
 Alpha  occ. eigenvalues --   -0.43518  -0.43156  -0.42614  -0.42066  -0.41360
 Alpha  occ. eigenvalues --   -0.40622  -0.39635  -0.38556  -0.38133  -0.37391
 Alpha  occ. eigenvalues --   -0.37242  -0.36170  -0.35691  -0.35042  -0.34235
 Alpha  occ. eigenvalues --   -0.30323  -0.27934  -0.26267
 Alpha virt. eigenvalues --   -0.00863   0.00563   0.01555   0.01998   0.02437
 Alpha virt. eigenvalues --    0.02734   0.03240   0.03998   0.04609   0.04790
 Alpha virt. eigenvalues --    0.04980   0.05473   0.06104   0.06383   0.06627

 Mulliken charges:
               1
     1  C   -0.234986
     2  C   -0.506832
     3  C   -0.038098
     4  C   -0.777210
     5  H    0.178839
     6  H    0.163880
     7  H    0.183272
     8  H    0.165602
     9  H    0.159947
    10  H    0.178590
    11  H    0.222020
    12  N   -0.004636
    13  C    0.245200
    14  O   -0.277854
    15  O    0.070607
    16  C   -0.216865
    17  C   -0.421449
    18  H    0.148138
    19  H    0.164299
    20  H    0.152289
    21  C   -0.345993
    22  H    0.140292
    23  H    0.183475
    24  H    0.151567
    25  C   -0.380024
    26  H    0.187028
    27  H    0.140572
    28  H    0.143320
    29  C    0.517220
    30  F   -0.111392
    31  F   -0.071973
    32  F   -0.108844
 Sum of Mulliken charges =   0.00000

 Dipole moment (field-independent basis, Debye):
    X=              0.2768    Y=             -0.4753    Z=             -2.3928  Tot=              2.4552
 Quadrupole moment (field-independent basis, Debye-Ang):
   XX=            -88.2642   YY=           -101.0628   ZZ=            -94.8933
   XY=            -10.9098   XZ=             -1.0366   YZ=              2.4662

  Exact polarizability: 152.625  -5.979 128.493  -3.879  -5.232 113.909
 Approx polarizability: 189.414   1.424 180.617  -5.041 -11.470 167.105

 ESP charges:
               1
     1  C   -0.048093
     2  C    0.048579
     3  C    0.101584
     4  C    0.046584
     5  H    0.027273
     6  H    0.046612
     7  H    0.014816
     8  H   -0.002269
     9  H    0.032274
    10  H    0.018708
    11  H    0.066818
    12  N   -0.355221
    13  C    0.817810
    14  O   -0.606250
    15  O   -0.564217
    16  C    0.825371
    17  C   -0.387520
    18  H    0.072179
    19  H    0.096186
    20  H    0.083830
    21  C   -0.399887
    22  H    0.070946
    23  H    0.105971
    24  H    0.086648
    25  C   -0.360356
    26  H    0.098792
    27  H    0.060936
    28  H    0.065566
    29  C    0.610253
    30  F   -0.209076
    31  F   -0.228711
    32  F   -0.236137
 Sum of ESP charges =   0.00000

 Summary of Natural Population Analysis:

                                       Natural Population
                Natural  -----------------------------------------------
    Atom  No    Charge         Core      Valence    Rydberg      Total
 -----------------------------------------------------------------------
      C    1   -0.38967      1.99926     4.37542    0.01499     6.38967
      C    2   -0.40117      1.99929     4.38853    0.01335     6.40117
      C    3   -0.16055      1.99931     4.14389    0.01735     6.16055
      C    4   -0.08537      1.99910     4.06272    0.02355     6.08537
      H    5    0.22398      0.00000     0.77433    0.00169     0.77602
      H    6    0.20930      0.00000     0.78902    0.00168     0.79070
      H    7    0.21142      0.00000     0.78672    0.00186     0.78858
      H    8    0.21257      0.00000     0.78593    0.00150     0.78743
      H    9    0.19975      0.00000     0.79813    0.00212     0.80025
      H   10    0.20828      0.00000     0.79010    0.00162     0.79172
      H   11    0.24375      0.00000     0.75439    0.00186     0.75625
      N   12   -0.53900      1.99926     5.51790    0.02184     7.53900
      C   13    0.94673      1.99931     3.00496    0.04900     5.05327
      O   14   -0.65463      1.99974     6.64477    0.01012     8.65463
      O   15   -0.60442      1.99969     6.58530    0.01942     8.60442
      C   16    0.27566      1.99911     3.70298    0.02226     5.72434
      C   17   -0.58205      1.99924     4.57072    0.01210     6.58205
      H   18    0.20546      0.00000     0.79336    0.00118     0.79454
      H   19    0.21295      0.00000     0.78558    0.00148     0.78705
      H   20    0.20619      0.00000     0.79235    0.00146     0.79381
      C   21   -0.60689      1.99923     4.59645    0.01121     6.60689
      H   22    0.20606      0.00000     0.79266    0.00128     0.79394
      H   23    0.23098      0.00000     0.76750    0.00152     0.76902
      H   24    0.20945      0.00000     0.78918    0.00138     0.79055
      C   25   -0.60485      1.99923     4.59442    0.01119     6.60485
      H   26    0.23232      0.00000     0.76616    0.00152     0.76768
      H   27    0.20568      0.00000     0.79305    0.00127     0.79432
      H   28    0.20342      0.00000     0.79517    0.00141     0.79658
      C   29    1.06771      1.99918     2.87242    0.06068     4.93229
      F   30   -0.36540      1.99992     7.35807    0.00741     9.36540
      F   31   -0.35144      1.99991     7.34370    0.00783     9.35144
      F   32   -0.36621      1.99992     7.35951    0.00677     9.36621
 =======================================================================
   * Total *    0.00000     31.99071    93.67542    0.33387   126.00000

                      1                      2                      3
                      A                      A                      A
 Frequencies --     33.3665                41.6379                44.9598
 Red. masses --      3.7323                 5.8690                 6.5581
 Frc consts  --      0.0024                 0.0060                 0.0078
 IR Inten    --      0.9724                 0.5073                 0.7242

                      4                      5                      6
                      A                      A                      A
 Frequencies --     85.9726               103.6569               116.9389
 Red. masses --      5.6359                 2.8462                 5.2410
 Frc consts  --      0.0245                 0.0180                 0.0422
 IR Inten    --      2.7071                 0.7636                 0.9589

                      7                      8                      9
                      A                      A                      A
 Frequencies --    148.9194               179.0452               210.6963
 Red. masses --      3.6282                 3.2652                 1.0903
 Frc consts  --      0.0474                 0.0617                 0.0285
 IR Inten    --      1.3266                 2.2273                 0.0826

                     10                     11                     12
                      A                      A                      A
 Frequencies --    216.8093               238.6869               256.0173
 Red. masses --      2.7993                 3.6422                 1.1283
 Frc consts  --      0.0775                 0.1223                 0.0436
 IR Inten    --      1.1560                 1.2617                 0.0449

                     13                     14                     15
                      A                      A                      A
 Frequencies --    262.6968               280.0124               304.0078
 Red. masses --      4.6757                 1.0715                 3.6277
 Frc consts  --      0.1901                 0.0495                 0.1975
 IR Inten    --      1.5014                 0.0420                 1.6420

                     16                     17                     18
                      A                      A                      A
 Frequencies --    326.9000               350.5761               357.6960
 Red. masses --      3.5556                 2.5606                 4.5228
 Frc consts  --      0.2239                 0.1854                 0.3409
 IR Inten    --      4.6186                 1.2297                 7.3145

                     19                     20                     21
                      A                      A                      A
 Frequencies --    363.1327               424.9150               458.4660
 Red. masses --      7.7680                 2.9646                 2.9295
 Frc consts  --      0.6035                 0.3154                 0.3628
 IR Inten    --      3.7895                 2.2957                 2.7296

                     22                     23                     24
                      A                      A                      A
 Frequencies --    483.4090               516.7605               529.9574
 Red. masses --      2.7630                 9.4844                 8.9990
 Frc consts  --      0.3804                 1.4922                 1.4891
 IR Inten    --      1.0941                 3.7531                 3.4400

                     25                     26                     27
                      A                      A                      A
 Frequencies --    589.0368               603.4796               680.1313
 Red. masses --      4.6744                 2.8955                 3.8121
 Frc consts  --      0.9556                 0.6213                 1.0390
 IR Inten    --      8.0204                 7.7182                19.3729

                     28                     29                     30
                      A                      A                      A
 Frequencies --    754.4345               774.8145               788.0947
 Red. masses --      4.3203                 9.3208                 5.7329
 Frc consts  --      1.4488                 3.2968                 2.0979
 IR Inten    --      3.1303                22.0259                 2.5940

                     31                     32                     33
                      A                      A                      A
 Frequencies --    808.5509               850.6629               869.8987
 Red. masses --      5.7212                 2.7876                 2.1984
 Frc consts  --      2.2037                 1.1885                 0.9802
 IR Inten    --      7.6015                23.7046                 5.7174

                     34                     35                     36
                      A                      A                      A
 Frequencies --    884.0463               908.3376               925.0275
 Red. masses --      2.8670                 2.3619                 1.8917
 Frc consts  --      1.3202                 1.1482                 0.9537
 IR Inten    --     14.6235                38.0437                 8.1139

                     37                     38                     39
                      A                      A                      A
 Frequencies --    925.9377               930.2111               970.1668
 Red. masses --      1.8049                 1.7556                 1.2003
 Frc consts  --      0.9117                 0.8950                 0.6656
 IR Inten    --      7.5208                 8.6345                 0.0845

                     40                     41                     42
                      A                      A                      A
 Frequencies --    991.4349              1044.2937              1051.6037
 Red. masses --      1.9756                 2.0943                 1.4091
 Frc consts  --      1.1441                 1.3456                 0.9181
 IR Inten    --      6.3878                 4.5389                 0.6071

                     43                     44                     45
                      A                      A                      A
 Frequencies --   1057.4266              1072.6000              1111.9689
 Red. masses --      1.4537                 2.3859                 4.1728
 Frc consts  --      0.9577                 1.6173                 3.0399
 IR Inten    --      1.5503               103.2779               169.0957

                     46                     47                     48
                      A                      A                      A
 Frequencies --   1131.5764              1158.1961              1185.4735
 Red. masses --      5.4230                 3.2587                 1.5988
 Frc consts  --      4.0912                 2.5755                 1.3238
 IR Inten    --    228.4223                62.2993               149.8056

                     49                     50                     51
                      A                      A                      A
 Frequencies --   1198.3731              1205.9171              1233.5623
 Red. masses --      1.8323                 2.8097                 2.5249
 Frc consts  --      1.5504                 2.4074                 2.2637
 IR Inten    --    217.4720                35.8424                53.1790

                     52                     53                     54
                      A                      A                      A
 Frequencies --   1248.8965              1265.5192              1276.8910
 Red. masses --      1.5028                 2.7331                 2.7992
 Frc consts  --      1.3810                 2.5790                 2.6890
 IR Inten    --     38.2381                14.7772                53.3276

                     55                     56                     57
                      A                      A                      A
 Frequencies --   1283.9310              1301.0165              1334.8721
 Red. masses --      1.8696                 1.6858                 1.3724
 Frc consts  --      1.8159                 1.6812                 1.4409
 IR Inten    --     61.4507                67.6946                11.5045

                     58                     59                     60
                      A                      A                      A
 Frequencies --   1355.1009              1382.4766              1383.5648
 Red. masses --      1.3168                 1.8050                 3.5123
 Frc consts  --      1.4247                 2.0325                 3.9613
 IR Inten    --      4.4392                94.5698               414.5942

                     61                     62                     63
                      A                      A                      A
 Frequencies --   1399.0000              1401.8071              1414.7882
 Red. masses --      1.2708                 1.3117                 1.6295
 Frc consts  --      1.4654                 1.5186                 1.9217
 IR Inten    --     22.1799                49.9550               106.4823

                     64                     65                     66
                      A                      A                      A
 Frequencies --   1427.5986              1470.8626              1491.6894
 Red. masses --      1.2368                 1.0451                 1.0461
 Frc consts  --      1.4851                 1.3321                 1.3714
 IR Inten    --     14.8226                 0.2909                 0.7728

                     67                     68                     69
                      A                      A                      A
 Frequencies --   1492.5538              1496.2018              1497.0743
 Red. masses --      1.0506                 1.0846                 1.0656
 Frc consts  --      1.3790                 1.4306                 1.4072
 IR Inten    --      1.0564                 5.4271                16.2495

                     70                     71                     72
                      A                      A                      A
 Frequencies --   1506.0540              1507.5450              1528.4129
 Red. masses --      1.0526                 1.0936                 1.0560
 Frc consts  --      1.4066                 1.4644                 1.4534
 IR Inten    --      2.3453                 4.4452                23.2508

                     73                     74                     75
                      A                      A                      A
 Frequencies --   1533.8021              1747.4440              3033.5018
 Red. masses --      1.0895                11.6111                 1.0366
 Frc consts  --      1.5102                20.8897                 5.6203
 IR Inten    --      2.8366               409.0401                13.9378

                     76                     77                     78
                      A                      A                      A
 Frequencies --   3035.4280              3042.3748              3042.8410
 Red. masses --      1.0360                 1.0407                 1.0615
 Frc consts  --      5.6241                 5.6757                 5.7908
 IR Inten    --     19.7236                31.1292                17.2951

                     79                     80                     81
                      A                      A                      A
 Frequencies --   3056.9830              3071.7096              3087.4138
 Red. masses --      1.0667                 1.0626                 1.0990
 Frc consts  --      5.8732                 5.9072                 6.1720
 IR Inten    --     16.2255                21.4481                19.6635

                     82                     83                     84
                      A                      A                      A
 Frequencies --   3093.1654              3098.2348              3104.8750
 Red. masses --      1.1018                 1.1016                 1.0857
 Frc consts  --      6.2108                 6.2303                 6.1666
 IR Inten    --     10.4686                13.6226                 8.5705

                     85                     86                     87
                      A                      A                      A
 Frequencies --   3107.1581              3108.4555              3111.9313
 Red. masses --      1.1021                 1.1010                 1.1023
 Frc consts  --      6.2689                 6.2680                 6.2896
 IR Inten    --     39.4315                10.6009                34.7854

                     88                     89                     90
                      A                      A                      A
 Frequencies --   3120.5062              3135.8790              3140.7074
 Red. masses --      1.1054                 1.1004                 1.0992
 Frc consts  --      6.3417                 6.3757                 6.3884
 IR Inten    --     25.4476                 2.8997                 9.6027

 - Thermochemistry -
 -------------------
 Temperature   298.150 Kelvin.  Pressure   1.00000 Atm.
 Atom     1 has atomic number  6 and mass  12.00000

 Molecular mass:   239.11331 amu.
 Principal axes and moments of inertia in atomic units:
                           1         2         3
     Eigenvalues --  2194.271994861.826425970.01716
           X            0.99851  -0.05434  -0.00545
           Y            0.05432   0.99851  -0.00424
           Z            0.00567   0.00394   0.99998
 This molecule is an asymmetric top.
 Rotational symmetry number  1.
 Warning -- assumption of classical behavior for rotation
           may cause significant error
 Rotational temperatures (Kelvin)      0.03947     0.01782     0.01451
 Rotational constants (GHZ):           0.82248     0.37121     0.30230
 Zero-point vibrational energy     682940.6 (Joules/Mol)
                                  163.22673 (Kcal/Mol)
 Warning -- explicit consideration of  26 degrees of freedom as
           vibrations may cause significant error
 Vibrational temperatures:     48.01    59.91    64.69   123.70   149.14
          (Kelvin)            168.25   214.26   257.61   303.14   311.94
                              343.42   368.35   377.96   402.87   437.40
                              470.34   504.40   514.64   522.47   611.36
                              659.63   695.52   743.50   762.49   847.49
                              868.27   978.56  1085.46  1114.78  1133.89
                             1163.32  1223.91  1251.59  1271.94  1306.89
                             1330.91  1332.22  1338.36  1395.85  1426.45
                             1502.50  1513.02  1521.40  1543.23  1599.87
                             1628.08  1666.38  1705.63  1724.19  1735.04
                             1774.82  1796.88  1820.80  1837.16  1847.29
                             1871.87  1920.58  1949.69  1989.07  1990.64
                             2012.85  2016.89  2035.56  2053.99  2116.24
                             2146.21  2147.45  2152.70  2153.95  2166.87
                             2169.02  2199.04  2206.80  2514.18  4364.53
                             4367.30  4377.29  4377.96  4398.31  4419.50
                             4442.09  4450.37  4457.66  4467.22  4470.50
                             4472.37  4477.37  4489.71  4511.82  4518.77

 Zero-point correction=                           0.260118 (Hartree/Particle)
 Thermal correction to Energy=                    0.276645
 Thermal correction to Enthalpy=                  0.277589
 Thermal correction to Gibbs Free Energy=         0.215507
 Sum of electronic and zero-point Energies=           -895.480203
 Sum of electronic and thermal Energies=              -895.463676
 Sum of electronic and thermal Enthalpies=            -895.462732
 Sum of electronic and thermal Free Energies=         -895.524815

                     E (Thermal)             CV                S
                      KCal/Mol        Cal/Mol-Kelvin    Cal/Mol-Kelvin
 Total                  173.597             61.780            130.664
 Electronic               0.000              0.000              0.000
 Translational            0.889              2.981             42.317
 Rotational               0.889              2.981             32.521
 Vibrational            171.820             55.818             55.826
 Vibration     1          0.594              1.983              5.618
 Vibration     2          0.594              1.981              5.180
 Vibration     3          0.595              1.979              5.028
 Vibration     4          0.601              1.959              3.750
 Vibration     5          0.605              1.946              3.384
 Vibration     6          0.608              1.935              3.150
 Vibration     7          0.618              1.904              2.686
 Vibration     8          0.629              1.868              2.338
 Vibration     9          0.643              1.825              2.038
 Vibration    10          0.646              1.815              1.986
 Vibration    11          0.657              1.781              1.813
 Vibration    12          0.666              1.753              1.689
 Vibration    13          0.670              1.741              1.644
 Vibration    14          0.680              1.711              1.534
 Vibration    15          0.695              1.666              1.395
 Vibration    16          0.711              1.622              1.275
 Vibration    17          0.727              1.574              1.164
 Vibration    18          0.733              1.559              1.132
 Vibration    19          0.737              1.548              1.109
 Vibration    20          0.787              1.416              0.875
 Vibration    21          0.816              1.342              0.771
 Vibration    22          0.840              1.287              0.701
 Vibration    23          0.872              1.213              0.618
 Vibration    24          0.885              1.184              0.587
 Vibration    25          0.946              1.055              0.469
 Vibration    26          0.962              1.024              0.444

 Optimization completed.
    -- Stationary point found.
 Normal termination of Gaussian 09 at Tue Aug 27 14:37:14 2024.
