 Gaussian 09, Revision D.01,
 Gaussian 09:  ES64L-G09RevD.01 24-Apr-2013

 ----------------------------------------------------------------------
 # opt freq b3lyp/6-311+g(d,p) geom=connectivity pop=(hirshfeld,npa,mbs
 ,chelpg)
 ----------------------------------------------------------------------

 -------------------
 Title Card Required
 -------------------
 Symbolic Z-matrix:
 Charge =  0 Multiplicity = 1

 SCF Done:  E(RB3LYP) =  -312.367819337     A.U. after   11 cycles
 SCF Done:  E(RB3LYP) =  -312.383473619     A.U. after   10 cycles
 SCF Done:  E(RB3LYP) =  -312.384758544     A.U. after    9 cycles
 SCF Done:  E(RB3LYP) =  -312.384843234     A.U. after    9 cycles
 SCF Done:  E(RB3LYP) =  -312.384847569     A.U. after    8 cycles
 SCF Done:  E(RB3LYP) =  -312.384847824     A.U. after    7 cycles
 SCF Done:  E(RB3LYP) =  -312.384847872     A.U. after    6 cycles
 Optimization completed.
    -- Stationary point found.
 Normal termination of Gaussian 09 at Tue Feb 22 09:31:53 2022.

 ----------------------------------------------------------------------
 #N Geom=AllCheck Guess=TCheck SCRF=Check GenChk RB3LYP/6-311+G(d,p) Fr
 eq
 ----------------------------------------------------------------------

 Structure from the checkpoint file:  "Scheme8_1.chk"
 -------------------
 Title Card Required
 -------------------
 Charge =  0 Multiplicity = 1

                         Standard orientation:
 ---------------------------------------------------------------------
 Center     Atomic      Atomic             Coordinates (Angstroms)
 Number     Number       Type             X           Y           Z
 ---------------------------------------------------------------------
      1          6           0        2.444937    0.470457    0.000256
      2          6           0        3.608771   -0.503921    0.000092
      3          1           0        2.486016    1.122772   -0.886049
      4          1           0        2.485379    1.121689    0.887388
      5          1           0        4.558156    0.038895    0.000768
      6          1           0        3.575391   -1.143416    0.885249
      7          1           0        3.576037   -1.142345   -0.885861
      8          6           0        0.073307    0.554027   -0.000037
      9          6           0       -1.163268   -0.332340    0.000175
     10          1           0        0.076450    1.207907   -0.887029
     11          1           0        0.077100    1.207459    0.887280
     12          6           0       -2.470510    0.468245   -0.000147
     13          1           0       -1.125153   -0.986067   -0.878230
     14          1           0       -1.125332   -0.985542    0.878981
     15          6           0       -3.715688   -0.423454    0.000133
     16          1           0       -2.495437    1.127142    0.876366
     17          1           0       -2.495364    1.126521   -0.877126
     18          1           0       -4.632758    0.172073   -0.000058
     19          1           0       -3.738274   -1.070037   -0.882559
     20          1           0       -3.738281   -1.069474    0.883237
     21          8           0        1.231348   -0.265707   -0.000648
 ---------------------------------------------------------------------

 SCF Done:  E(RB3LYP) =  -312.384847872     A.U. after    1 cycles

 The electronic state is 1-A.
 Alpha  occ. eigenvalues --  -19.12109 -10.21601 -10.21350 -10.16903 -10.16346
 Alpha  occ. eigenvalues --  -10.15992 -10.15951  -1.03392  -0.80120  -0.76065
 Alpha  occ. eigenvalues --   -0.71169  -0.63277  -0.60581  -0.58317  -0.49496
 Alpha  occ. eigenvalues --   -0.49366  -0.46437  -0.44679  -0.42649  -0.40743
 Alpha  occ. eigenvalues --   -0.39093  -0.38103  -0.37521  -0.35061  -0.34211
 Alpha  occ. eigenvalues --   -0.33663  -0.32922  -0.31814  -0.26013
 Alpha virt. eigenvalues --    0.00712   0.01403   0.02124   0.02991   0.03637
 Alpha virt. eigenvalues --    0.03750   0.05018   0.05808   0.06118   0.06761
 Alpha virt. eigenvalues --    0.07076   0.08254   0.08266   0.09252   0.09684

 Mulliken charges:
               1
     1  C   -0.009967
     2  C   -0.543699
     3  H    0.122335
     4  H    0.122327
     5  H    0.137568
     6  H    0.143809
     7  H    0.143813
     8  C   -0.199255
     9  C   -0.205266
    10  H    0.125659
    11  H    0.125653
    12  C   -0.156442
    13  H    0.144658
    14  H    0.144638
    15  C   -0.583927
    16  H    0.134024
    17  H    0.134027
    18  H    0.136589
    19  H    0.134623
    20  H    0.134616
    21  O   -0.185784
 Sum of Mulliken charges =   0.00000

 Dipole moment (field-independent basis, Debye):
    X=             -0.0188    Y=              1.2002    Z=              0.0014  Tot=              1.2003
 Quadrupole moment (field-independent basis, Debye-Ang):
   XX=            -44.5291   YY=            -48.0442   ZZ=            -46.6233
   XY=              1.3761   XZ=              0.0022   YZ=             -0.0006

  Exact polarizability:  98.032   0.192  73.886   0.001  -0.001  68.556
 Approx polarizability: 104.736  -0.006 104.199   0.001   0.001 100.441

 ESP charges:
               1
     1  C    0.450687
     2  C   -0.262765
     3  H   -0.052120
     4  H   -0.052055
     5  H    0.045726
     6  H    0.073705
     7  H    0.073738
     8  C    0.215930
     9  C    0.034428
    10  H   -0.015966
    11  H   -0.016015
    12  C    0.172402
    13  H    0.001035
    14  H    0.001033
    15  C   -0.151871
    16  H   -0.048798
    17  H   -0.048758
    18  H    0.035909
    19  H    0.025998
    20  H    0.026006
    21  O   -0.508251
 Sum of ESP charges =   0.00000

 Summary of Natural Population Analysis:

                                       Natural Population
                Natural  -----------------------------------------------
    Atom  No    Charge         Core      Valence    Rydberg      Total
 -----------------------------------------------------------------------
      C    1   -0.02017      1.99927     4.00155    0.01935     6.02017
      C    2   -0.58908      1.99937     4.58061    0.00910     6.58908
      H    3    0.15411      0.00000     0.84294    0.00295     0.84589
      H    4    0.15410      0.00000     0.84295    0.00295     0.84590
      H    5    0.20040      0.00000     0.79831    0.00128     0.79960
      H    6    0.20380      0.00000     0.79428    0.00192     0.79620
      H    7    0.20380      0.00000     0.79428    0.00191     0.79620
      C    8   -0.01096      1.99920     3.99167    0.02009     6.01096
      C    9   -0.39924      1.99927     4.38464    0.01532     6.39924
      H   10    0.15427      0.00000     0.84255    0.00318     0.84573
      H   11    0.15427      0.00000     0.84255    0.00318     0.84573
      C   12   -0.38602      1.99931     4.37415    0.01256     6.38602
      H   13    0.19920      0.00000     0.79838    0.00242     0.80080
      H   14    0.19917      0.00000     0.79841    0.00242     0.80083
      C   15   -0.57108      1.99938     4.56253    0.00917     6.57108
      H   16    0.18833      0.00000     0.80938    0.00229     0.81167
      H   17    0.18833      0.00000     0.80937    0.00229     0.81167
      H   18    0.19936      0.00000     0.79942    0.00122     0.80064
      H   19    0.19426      0.00000     0.80400    0.00175     0.80574
      H   20    0.19425      0.00000     0.80400    0.00175     0.80575
      O   21   -0.61111      1.99975     6.58681    0.02455     8.61111
 =======================================================================
   * Total *    0.00000     13.99554    43.86279    0.14166    58.00000

                      1                      2                      3
                      A                      A                      A
 Frequencies --     60.7311                73.4419               105.2903
 Red. masses --      2.8801                 1.6023                 3.1064
 Frc consts  --      0.0063                 0.0051                 0.0203
 IR Inten    --      0.8638                 0.7674                 0.3322

                      4                      5                      6
                      A                      A                      A
 Frequencies --    132.9648               143.2105               243.1401
 Red. masses --      1.9059                 2.7947                 1.1278
 Frc consts  --      0.0199                 0.0338                 0.0393
 IR Inten    --      0.1756                 4.2169                 0.0828

                      7                      8                      9
                      A                      A                      A
 Frequencies --    249.7770               254.5849               316.9642
 Red. masses --      1.1751                 2.8728                 3.6358
 Frc consts  --      0.0432                 0.1097                 0.2152
 IR Inten    --      0.7425                 0.6122                 0.0819

                     10                     11                     12
                      A                      A                      A
 Frequencies --    449.4619               499.5233               747.2601
 Red. masses --      2.9049                 3.1325                 1.0731
 Frc consts  --      0.3457                 0.4605                 0.3530
 IR Inten    --      3.4134                 1.2436                 2.2218

                     13                     14                     15
                      A                      A                      A
 Frequencies --    816.0834               827.2231               878.6542
 Red. masses --      1.1188                 1.1024                 2.2436
 Frc consts  --      0.4390                 0.4445                 1.0205
 IR Inten    --      0.7735                 0.0439                 7.7947

                     16                     17                     18
                      A                      A                      A
 Frequencies --    921.9083               957.8743              1013.8988
 Red. masses --      1.7356                 1.1506                 3.5509
 Frc consts  --      0.8691                 0.6220                 2.1507
 IR Inten    --      6.6721                 0.0016                 7.5683

                     19                     20                     21
                      A                      A                      A
 Frequencies --   1040.4586              1068.4096              1116.0908
 Red. masses --      3.2309                 2.2287                 2.2108
 Frc consts  --      2.0607                 1.4989                 1.6225
 IR Inten    --      6.8691                 3.1067                12.1598

                     22                     23                     24
                      A                      A                      A
 Frequencies --   1137.5052              1168.2514              1172.0535
 Red. masses --      5.9282                 2.7278                 1.5082
 Frc consts  --      4.5194                 2.1935                 1.2207
 IR Inten    --    220.0337                30.3582                 0.7294

                     25                     26                     27
                      A                      A                      A
 Frequencies --   1195.5191              1252.3614              1297.1863
 Red. masses --      1.7092                 1.2840                 1.3182
 Frc consts  --      1.4393                 1.1865                 1.3069
 IR Inten    --      7.5005                 2.1153                 3.0260

                     28                     29                     30
                      A                      A                      A
 Frequencies --   1297.3161              1314.9707              1326.4571
 Red. masses --      1.1016                 1.1207                 1.0791
 Frc consts  --      1.0924                 1.1417                 1.1187
 IR Inten    --      2.2767                 0.2130                 0.0412

                     31                     32                     33
                      A                      A                      A
 Frequencies --   1379.2836              1394.3561              1411.5131
 Red. masses --      1.3054                 1.3816                 1.3131
 Frc consts  --      1.4632                 1.5827                 1.5415
 IR Inten    --     15.2070                13.6095                25.4387

                     34                     35                     36
                      A                      A                      A
 Frequencies --   1415.1188              1448.4426              1483.6733
 Red. masses --      1.2438                 1.4858                 1.0389
 Frc consts  --      1.4676                 1.8365                 1.3474
 IR Inten    --      6.2065                 1.7666                 7.0371

                     37                     38                     39
                      A                      A                      A
 Frequencies --   1491.7770              1496.8247              1499.9031
 Red. masses --      1.0640                 1.0670                 1.0393
 Frc consts  --      1.3951                 1.4085                 1.3775
 IR Inten    --      0.4348                 0.0809                 8.3475

                     40                     41                     42
                      A                      A                      A
 Frequencies --   1500.0433              1509.1739              1517.9606
 Red. masses --      1.0501                 1.0812                 1.0899
 Frc consts  --      1.3922                 1.4509                 1.4797
 IR Inten    --      4.0469                 7.3601                 3.2081

                     43                     44                     45
                      A                      A                      A
 Frequencies --   1533.2364              2943.3331              2957.0262
 Red. masses --      1.0892                 1.0537                 1.0545
 Frc consts  --      1.5085                 5.3785                 5.4324
 IR Inten    --      2.6509                17.2080               100.6421

                     46                     47                     48
                      A                      A                      A
 Frequencies --   2969.6196              2976.0221              3005.0370
 Red. masses --      1.1056                 1.1069                 1.0588
 Frc consts  --      5.7446                 5.7763                 5.6333
 IR Inten    --     65.8799                44.8021                24.2397

                     49                     50                     51
                      A                      A                      A
 Frequencies --   3018.9884              3024.5631              3026.6221
 Red. masses --      1.0385                 1.0553                 1.1018
 Frc consts  --      5.5769                 5.6879                 5.9464
 IR Inten    --     21.0697                55.8688                 5.5361

                     52                     53                     54
                      A                      A                      A
 Frequencies --   3033.2986              3062.8303              3082.1340
 Red. masses --      1.0349                 1.1052                 1.1027
 Frc consts  --      5.6104                 6.1087                 6.1716
 IR Inten    --     22.1493                27.5417                75.4525

                     55                     56                     57
                      A                      A                      A
 Frequencies --   3084.8597              3098.7603              3105.5212
 Red. masses --      1.1012                 1.1011                 1.1032
 Frc consts  --      6.1741                 6.2297                 6.2684
 IR Inten    --     43.5148                30.6543                31.3900

 - Thermochemistry -
 -------------------
 Temperature   298.150 Kelvin.  Pressure   1.00000 Atm.
 Atom     1 has atomic number  6 and mass  12.00000

 Molecular mass:   102.10447 amu.
 Principal axes and moments of inertia in atomic units:
                           1         2         3
     Eigenvalues --   146.452502288.816022367.92868
           X            1.00000   0.00255   0.00000
           Y           -0.00255   1.00000  -0.00003
           Z            0.00000   0.00003   1.00000
 This molecule is an asymmetric top.
 Rotational symmetry number  1.
 Rotational temperatures (Kelvin)      0.59141     0.03784     0.03658
 Rotational constants (GHZ):          12.32305     0.78850     0.76216
 Zero-point vibrational energy     505712.3 (Joules/Mol)
                                  120.86814 (Kcal/Mol)
 Warning -- explicit consideration of  11 degrees of freedom as
           vibrations may cause significant error
 Vibrational temperatures:     87.38   105.67   151.49   191.31   206.05
          (Kelvin)            349.82   359.37   366.29   456.04   646.67
                              718.70  1075.14  1174.16  1190.19  1264.19
                             1326.42  1378.17  1458.77  1496.99  1537.20
                             1605.80  1636.61  1680.85  1686.32  1720.08
                             1801.87  1866.36  1866.55  1891.95  1908.47
                             1984.48  2006.16  2030.85  2036.04  2083.98
                             2134.67  2146.33  2153.59  2158.02  2158.23
                             2171.36  2184.00  2205.98  4234.79  4254.50
                             4272.61  4281.83  4323.57  4343.65  4351.67
                             4354.63  4364.23  4406.72  4434.50  4438.42
                             4458.42  4468.15

 Zero-point correction=                           0.192616 (Hartree/Particle)
 Thermal correction to Energy=                    0.202169
 Thermal correction to Enthalpy=                  0.203113
 Thermal correction to Gibbs Free Energy=         0.157844
 Sum of electronic and zero-point Energies=           -312.192232
 Sum of electronic and thermal Energies=              -312.182679
 Sum of electronic and thermal Enthalpies=            -312.181735
 Sum of electronic and thermal Free Energies=         -312.227004

                     E (Thermal)             CV                S
                      KCal/Mol        Cal/Mol-Kelvin    Cal/Mol-Kelvin
 Total                  126.863             32.658             95.277
 Electronic               0.000              0.000              0.000
 Translational            0.889              2.981             39.780
 Rotational               0.889              2.981             28.164
 Vibrational            125.086             26.696             27.333
 Vibration     1          0.597              1.973              4.433
 Vibration     2          0.599              1.967              4.059
 Vibration     3          0.605              1.945              3.354
 Vibration     4          0.613              1.920              2.903
 Vibration     5          0.616              1.910              2.761
 Vibration     6          0.659              1.774              1.780
 Vibration     7          0.663              1.763              1.732
 Vibration     8          0.665              1.755              1.699
 Vibration     9          0.704              1.641              1.326
 Vibration    10          0.808              1.362              0.797
 Vibration    11          0.855              1.251              0.659

 Optimization completed.
    -- Stationary point found.
 Normal termination of Gaussian 09 at Tue Feb 22 09:33:30 2022.
