 Gaussian 09, Revision D.01,
 Gaussian 09:  ES64L-G09RevD.01 24-Apr-2013

 ----------------------------------------------------------------------
 # opt=rcfc freq=noraman b3lyp/6-311+g(d,p) pop=(npa,hirshfeld,chelpg,m
 bs) geom=allcheck guess=read
 ----------------------------------------------------------------------

 Structure from the checkpoint file:  "ChemRevAminoAcids9_Brimble.chk"
 -------------------
 Title Card Required
 -------------------
 Charge =  0 Multiplicity = 1

 SCF Done:  E(RB3LYP) =  -763.982821562     A.U. after    1 cycles
 SCF Done:  E(RB3LYP) =  -763.982821596     A.U. after    8 cycles
 Optimization completed.
    -- Stationary point found.
 Normal termination of Gaussian 09 at Tue Jan 24 11:38:05 2023.

 ----------------------------------------------------------------------
 #N Geom=AllCheck Guess=TCheck SCRF=Check GenChk RB3LYP/6-311+G(d,p) Fr
 eq
 ----------------------------------------------------------------------

 Structure from the checkpoint file:  "ChemRevAminoAcids9_Brimble.chk"
 -------------------
 Title Card Required
 -------------------
 Charge =  0 Multiplicity = 1

                         Standard orientation:
 ---------------------------------------------------------------------
 Center     Atomic      Atomic             Coordinates (Angstroms)
 Number     Number       Type             X           Y           Z
 ---------------------------------------------------------------------
      1          6           0        2.817097    0.565173    0.068711
      2          6           0        1.910211   -0.522533   -0.065959
      3          6           0        2.424363   -1.825547   -0.149190
      4          6           0        3.799339   -2.014138   -0.100688
      5          6           0        4.677691   -0.922856    0.030091
      6          6           0        4.198709    0.379389    0.116825
      7          6           0        0.723981    1.395749    0.031518
      8          6           0        0.585112    0.039808   -0.082100
      9          1           0        1.757929   -2.675082   -0.252431
     10          1           0        4.206283   -3.016897   -0.165402
     11          1           0        5.746654   -1.099743    0.064109
     12          1           0        4.878847    1.218303    0.218636
     13          1           0        2.435800    2.658291    0.188632
     14          7           0        2.064134    1.724849    0.132784
     15          6           0       -0.759725   -0.618459   -0.186728
     16          1           0       -0.968072   -0.925659   -1.218403
     17          1           0       -0.813912   -1.515908    0.434706
     18          6           0       -0.409032    2.371318    0.068019
     19          1           0       -0.510449    2.786859    1.089474
     20          1           0       -0.221304    3.215422   -0.605157
     21          1           0       -2.441364    2.255276   -0.312068
     22          7           0       -1.612564    1.677020   -0.386830
     23          6           0       -1.827767    0.393177    0.273255
     24          1           0       -1.743449    0.478818    1.375731
     25          6           0       -3.263774   -0.045598    0.027871
     26          8           0       -4.159448    0.700874   -0.287798
     27          8           0       -3.434818   -1.358620    0.259477
     28          6           0       -4.780617   -1.856209    0.120963
     29          1           0       -4.719603   -2.919238    0.342269
     30          1           0       -5.445764   -1.353416    0.824197
     31          1           0       -5.141980   -1.693796   -0.894936
 ---------------------------------------------------------------------

 SCF Done:  E(RB3LYP) =  -763.982821596     A.U. after    1 cycles

 The electronic state is 1-A.
 Alpha  occ. eigenvalues --  -19.18083 -19.12319 -14.35843 -14.30877 -10.31046
 Alpha  occ. eigenvalues --  -10.23427 -10.22388 -10.21684 -10.20782 -10.20632
 Alpha  occ. eigenvalues --  -10.17924 -10.17389 -10.17070 -10.16901 -10.16794
 Alpha  occ. eigenvalues --  -10.16515 -10.16366  -1.12216  -1.03488  -0.98584
 Alpha  occ. eigenvalues --   -0.92788  -0.84324  -0.80415  -0.78507  -0.74593
 Alpha  occ. eigenvalues --   -0.73840  -0.72903  -0.67365  -0.65004  -0.61085
 Alpha  occ. eigenvalues --   -0.59335  -0.57400  -0.55720  -0.54356  -0.52957
 Alpha  occ. eigenvalues --   -0.51158  -0.49112  -0.48838  -0.47473  -0.46508
 Alpha  occ. eigenvalues --   -0.45444  -0.45285  -0.43316  -0.43287  -0.42417
 Alpha  occ. eigenvalues --   -0.41861  -0.41248  -0.40472  -0.38520  -0.37846
 Alpha  occ. eigenvalues --   -0.37030  -0.36443  -0.34805  -0.33915  -0.33417
 Alpha  occ. eigenvalues --   -0.32210  -0.29237  -0.27625  -0.24062  -0.22448
 Alpha  occ. eigenvalues --   -0.20528
 Alpha virt. eigenvalues --   -0.01965  -0.01356  -0.00578   0.00305   0.00912
 Alpha virt. eigenvalues --    0.01133   0.01649   0.02444   0.02622   0.03325
 Alpha virt. eigenvalues --    0.03843   0.04370   0.04569   0.04745   0.05900

 Mulliken charges:
               1
     1  C   -0.342537
     2  C    1.342612
     3  C   -0.452435
     4  C   -0.352310
     5  C   -0.194549
     6  C   -0.688363
     7  C   -0.568802
     8  C    1.403946
     9  H    0.114726
    10  H    0.118782
    11  H    0.119934
    12  H    0.103418
    13  H    0.281108
    14  N   -0.096423
    15  C   -1.022778
    16  H    0.179443
    17  H    0.165296
    18  C   -0.294812
    19  H    0.145276
    20  H    0.149737
    21  H    0.258423
    22  N   -0.135757
    23  C   -0.562436
    24  H    0.173100
    25  C    0.239023
    26  O   -0.281212
    27  O   -0.116282
    28  C   -0.164919
    29  H    0.154792
    30  H    0.159786
    31  H    0.164214
 Sum of Mulliken charges =   0.00000

 Dipole moment (field-independent basis, Debye):
    X=             -0.2120    Y=              0.7570    Z=              1.3949  Tot=              1.6012
 Quadrupole moment (field-independent basis, Debye-Ang):
   XX=            -96.8993   YY=            -86.1273   ZZ=           -105.3175
   XY=             15.1526   XZ=             -3.1819   YZ=              3.0596

  Exact polarizability: 231.521 -13.832 186.722   3.213   2.996 106.596
 Approx polarizability: 305.127 -26.027 313.001   8.235   5.263 171.577

 ESP charges:
               1
     1  C    0.338600
     2  C    0.035497
     3  C   -0.170437
     4  C   -0.147208
     5  C   -0.071949
     6  C   -0.276484
     7  C    0.069860
     8  C   -0.156388
     9  H    0.120053
    10  H    0.093952
    11  H    0.085821
    12  H    0.132836
    13  H    0.370210
    14  N   -0.617066
    15  C    0.242864
    16  H   -0.026943
    17  H   -0.041824
    18  C    0.579872
    19  H   -0.087531
    20  H   -0.048146
    21  H    0.364490
    22  N   -0.867194
    23  C   -0.041675
    24  H    0.016176
    25  C    0.906458
    26  O   -0.590924
    27  O   -0.459591
    28  C    0.079350
    29  H    0.067778
    30  H    0.043570
    31  H    0.055971
 Sum of ESP charges =   0.00000

 Summary of Natural Population Analysis:

                                       Natural Population
                Natural  -----------------------------------------------
    Atom  No    Charge         Core      Valence    Rydberg      Total
 -----------------------------------------------------------------------
      C    1    0.16388      1.99897     3.81671    0.02044     5.83612
      C    2   -0.08693      1.99896     4.07117    0.01680     6.08693
      C    3   -0.19090      1.99909     4.17494    0.01687     6.19090
      C    4   -0.22710      1.99918     4.20946    0.01847     6.22710
      C    5   -0.21234      1.99919     4.19429    0.01886     6.21234
      C    6   -0.23779      1.99907     4.22210    0.01663     6.23779
      C    7    0.17145      1.99891     3.80830    0.02135     5.82855
      C    8   -0.09341      1.99870     4.07663    0.01809     6.09341
      H    9    0.20568      0.00000     0.79262    0.00170     0.79432
      H   10    0.20347      0.00000     0.79504    0.00149     0.79653
      H   11    0.20361      0.00000     0.79492    0.00147     0.79639
      H   12    0.20578      0.00000     0.79246    0.00177     0.79422
      H   13    0.40074      0.00000     0.59582    0.00344     0.59926
      N   14   -0.55027      1.99925     5.53601    0.01500     7.55027
      C   15   -0.38939      1.99920     4.37233    0.01786     6.38939
      H   16    0.21382      0.00000     0.78342    0.00277     0.78618
      H   17    0.21944      0.00000     0.77838    0.00218     0.78056
      C   18   -0.19596      1.99919     4.17775    0.01902     6.19596
      H   19    0.17542      0.00000     0.82171    0.00286     0.82458
      H   20    0.20465      0.00000     0.79330    0.00205     0.79535
      H   21    0.38069      0.00000     0.61631    0.00299     0.61931
      N   22   -0.67543      1.99944     5.65474    0.02125     7.67543
      C   23   -0.09583      1.99914     4.07515    0.02153     6.09583
      H   24    0.19559      0.00000     0.80113    0.00327     0.80441
      C   25    0.82327      1.99934     3.12752    0.04987     5.17673
      O   26   -0.60760      1.99974     6.59434    0.01352     8.60760
      O   27   -0.55242      1.99971     6.53624    0.01647     8.55242
      C   28   -0.21604      1.99925     4.20062    0.01618     6.21604
      H   29    0.18825      0.00000     0.81057    0.00118     0.81175
      H   30    0.18672      0.00000     0.81146    0.00182     0.81328
      H   31    0.18894      0.00000     0.80925    0.00181     0.81106
 =======================================================================
   * Total *    0.00000     33.98631    87.64468    0.36901   122.00000

                      1                      2                      3
                      A                      A                      A
 Frequencies --     42.5503                51.6295                86.7796
 Red. masses --      5.8264                 4.1843                 4.3581
 Frc consts  --      0.0062                 0.0066                 0.0193
 IR Inten    --      2.3540                 0.5573                 1.3347

                      4                      5                      6
                      A                      A                      A
 Frequencies --    113.7597               129.7293               146.7423
 Red. masses --      3.5985                 1.3820                 2.3113
 Frc consts  --      0.0274                 0.0137                 0.0293
 IR Inten    --      0.7403                 1.5927                 0.9794

                      7                      8                      9
                      A                      A                      A
 Frequencies --    183.2708               198.4691               225.2417
 Red. masses --      3.2968                 4.3450                 3.1814
 Frc consts  --      0.0652                 0.1008                 0.0951
 IR Inten    --      8.0199                 2.4509                 1.2837

                     10                     11                     12
                      A                      A                      A
 Frequencies --    262.3891               275.0355               299.6132
 Red. masses --      5.1281                 3.0482                 2.8406
 Frc consts  --      0.2080                 0.1359                 0.1502
 IR Inten    --      2.5599                16.3175                 2.5934

                     13                     14                     15
                      A                      A                      A
 Frequencies --    316.0384               354.6362               430.1693
 Red. masses --      4.2065                 1.4649                 3.3361
 Frc consts  --      0.2475                 0.1086                 0.3637
 IR Inten    --     16.9806                52.2000                 2.7819

                     16                     17                     18
                      A                      A                      A
 Frequencies --    434.7380               436.2333               460.4731
 Red. masses --      4.5126                 4.2362                 3.3236
 Frc consts  --      0.5025                 0.4750                 0.4152
 IR Inten    --      2.7455                 8.6530                 7.6615

                     19                     20                     21
                      A                      A                      A
 Frequencies --    516.6583               571.5744               584.3226
 Red. masses --      3.8311                 4.2296                 3.5271
 Frc consts  --      0.6025                 0.8141                 0.7095
 IR Inten    --      6.9679                12.6337                 3.4952

                     22                     23                     24
                      A                      A                      A
 Frequencies --    600.7706               642.6100               658.5461
 Red. masses --      6.2163                 4.0903                 4.1280
 Frc consts  --      1.3219                 0.9952                 1.0548
 IR Inten    --      4.4226                 4.1905                19.4699

                     25                     26                     27
                      A                      A                      A
 Frequencies --    685.6925               743.1212               748.4543
 Red. masses --      2.4757                 4.0135                 1.4192
 Frc consts  --      0.6858                 1.3058                 0.4684
 IR Inten    --     36.6182                18.2048                57.2416

                     28                     29                     30
                      A                      A                      A
 Frequencies --    765.0121               779.3216               816.0914
 Red. masses --      3.8627                 2.3163                 4.0854
 Frc consts  --      1.3319                 0.8288                 1.6031
 IR Inten    --      1.4951                36.6891                 7.4617

                     31                     32                     33
                      A                      A                      A
 Frequencies --    845.9298               853.1698               900.5246
 Red. masses --      3.1190                 1.5992                 3.8861
 Frc consts  --      1.3150                 0.6858                 1.8568
 IR Inten    --      1.7801                 0.2477                 3.4280

                     34                     35                     36
                      A                      A                      A
 Frequencies --    923.5216               935.2536               976.0900
 Red. masses --      4.0258                 1.3702                 1.2700
 Frc consts  --      2.0230                 0.7062                 0.7129
 IR Inten    --     16.5569                 1.5592                 0.0329

                     37                     38                     39
                      A                      A                      A
 Frequencies --    980.5885              1002.7375              1032.3079
 Red. masses --      2.9620                 2.7552                 2.0889
 Frc consts  --      1.6781                 1.6322                 1.3116
 IR Inten    --      8.5460                11.8347                 5.7716

                     40                     41                     42
                      A                      A                      A
 Frequencies --   1040.9613              1046.9701              1075.7014
 Red. masses --      2.1901                 3.8699                 2.6613
 Frc consts  --      1.3982                 2.4993                 1.8144
 IR Inten    --      2.8763                23.8948                 8.3658

                     43                     44                     45
                      A                      A                      A
 Frequencies --   1131.5162              1158.8849              1168.2247
 Red. masses --      1.8398                 2.1023                 2.9554
 Frc consts  --      1.3879                 1.6635                 2.3764
 IR Inten    --      2.6342                27.3355                47.0248

                     46                     47                     48
                      A                      A                      A
 Frequencies --   1171.4873              1178.2705              1204.9258
 Red. masses --      1.2817                 1.3020                 1.3561
 Frc consts  --      1.0364                 1.0650                 1.1600
 IR Inten    --      0.9736                 7.5453                 5.0485

                     49                     50                     51
                      A                      A                      A
 Frequencies --   1208.8797              1221.3251              1231.9506
 Red. masses --      1.2866                 1.6352                 1.6612
 Frc consts  --      1.1078                 1.4371                 1.4854
 IR Inten    --      6.2966                 0.4831               259.2009

                     52                     53                     54
                      A                      A                      A
 Frequencies --   1250.1736              1253.7257              1294.6921
 Red. masses --      1.8169                 1.9055                 2.3774
 Frc consts  --      1.6731                 1.7646                 2.3479
 IR Inten    --      5.8146               156.8165                14.6645

                     55                     56                     57
                      A                      A                      A
 Frequencies --   1295.6128              1339.9506              1363.3962
 Red. masses --      1.4537                 1.6775                 1.8585
 Frc consts  --      1.4377                 1.7746                 2.0354
 IR Inten    --     49.1618                25.0734                41.7329

                     58                     59                     60
                      A                      A                      A
 Frequencies --   1368.1985              1378.8182              1408.2086
 Red. masses --      2.3728                 2.1320                 2.1301
 Frc consts  --      2.6170                 2.3881                 2.4888
 IR Inten    --     29.6389                 2.5361                11.3976

                     61                     62                     63
                      A                      A                      A
 Frequencies --   1470.5368              1474.5800              1478.1179
 Red. masses --      1.2070                 2.2553                 1.8606
 Frc consts  --      1.5379                 2.8893                 2.3951
 IR Inten    --     14.1273                 7.1698                53.9566

                     64                     65                     66
                      A                      A                      A
 Frequencies --   1483.8731              1485.5581              1497.8330
 Red. masses --      1.0525                 1.2047                 1.0964
 Frc consts  --      1.3655                 1.5664                 1.4492
 IR Inten    --      8.8786                 5.3171                14.7414

                     67                     68                     69
                      A                      A                      A
 Frequencies --   1498.2578              1500.2719              1520.5703
 Red. masses --      2.0683                 1.1226                 2.8908
 Frc consts  --      2.7355                 1.4888                 3.9381
 IR Inten    --      9.8752                 1.0594                 4.1995

                     70                     71                     72
                      A                      A                      A
 Frequencies --   1604.1234              1626.9162              1661.5495
 Red. masses --      5.9287                 6.7168                 6.1039
 Frc consts  --      8.9884                10.4747                 9.9285
 IR Inten    --      1.5961                 2.5648                 3.2817

                     73                     74                     75
                      A                      A                      A
 Frequencies --   1783.2173              2877.9742              2886.2853
 Red. masses --     11.5861                 1.0783                 1.0743
 Frc consts  --     21.7067                 5.2620                 5.2729
 IR Inten    --    273.8193                54.6395               103.4485

                     76                     77                     78
                      A                      A                      A
 Frequencies --   3017.8469              3028.7104              3052.9507
 Red. masses --      1.0672                 1.0842                 1.0295
 Frc consts  --      5.7265                 5.8595                 5.6537
 IR Inten    --     31.7315                37.6324                35.9740

                     79                     80                     81
                      A                      A                      A
 Frequencies --   3073.0799              3127.0391              3159.8824
 Red. masses --      1.0947                 1.1072                 1.1065
 Frc consts  --      6.0912                 6.3787                 6.5095
 IR Inten    --     13.5839                17.0868                11.6562

                     82                     83                     84
                      A                      A                      A
 Frequencies --   3159.9087              3165.9227              3176.6093
 Red. masses --      1.0853                 1.0885                 1.0932
 Frc consts  --      6.3846                 6.4279                 6.4997
 IR Inten    --      2.4180                 3.1656                28.4109

                     85                     86                     87
                      A                      A                      A
 Frequencies --   3188.5492              3551.6176              3666.3975
 Red. masses --      1.0968                 1.0750                 1.0799
 Frc consts  --      6.5700                 7.9890                 8.5532
 IR Inten    --     21.1108                21.5666                61.9077

 - Thermochemistry -
 -------------------
 Temperature   298.150 Kelvin.  Pressure   1.00000 Atm.
 Atom     1 has atomic number  6 and mass  12.00000

 Molecular mass:   230.10553 amu.
 Principal axes and moments of inertia in atomic units:
                           1         2         3
     Eigenvalues --  1589.692017385.730108874.81644
           X            0.99997   0.00750  -0.00093
           Y           -0.00750   0.99995   0.00657
           Z            0.00098  -0.00656   0.99998
 This molecule is an asymmetric top.
 Rotational symmetry number  1.
 Warning -- assumption of classical behavior for rotation
           may cause significant error
 Rotational temperatures (Kelvin)      0.05448     0.01173     0.00976
 Rotational constants (GHZ):           1.13528     0.24436     0.20336
 Zero-point vibrational energy     664046.2 (Joules/Mol)
                                  158.71084 (Kcal/Mol)
 Warning -- explicit consideration of  22 degrees of freedom as
           vibrations may cause significant error
 Vibrational temperatures:     61.22    74.28   124.86   163.67   186.65
          (Kelvin)            211.13   263.69   285.55   324.07   377.52
                              395.71   431.08   454.71   510.24   618.92
                              625.49   627.64   662.52   743.36   822.37
                              840.71   864.37   924.57   947.50   986.56
                             1069.18  1076.86  1100.68  1121.27  1174.17
                             1217.10  1227.52  1295.65  1328.74  1345.62
                             1404.37  1410.85  1442.71  1485.26  1497.71
                             1506.35  1547.69  1628.00  1667.37  1680.81
                             1685.51  1695.27  1733.62  1739.31  1757.21
                             1772.50  1798.72  1803.83  1862.77  1864.10
                             1927.89  1961.62  1968.53  1983.81  2026.10
                             2115.77  2121.59  2126.68  2134.96  2137.38
                             2155.04  2155.66  2158.55  2187.76  2307.97
                             2340.77  2390.60  2565.65  4140.76  4152.72
                             4342.00  4357.63  4392.51  4421.47  4499.11
                             4546.36  4546.40  4555.05  4570.43  4587.61
                             5109.98  5275.12

 Zero-point correction=                           0.252922 (Hartree/Particle)
 Thermal correction to Energy=                    0.267465
 Thermal correction to Enthalpy=                  0.268409
 Thermal correction to Gibbs Free Energy=         0.210995
 Sum of electronic and zero-point Energies=           -763.729900
 Sum of electronic and thermal Energies=              -763.715356
 Sum of electronic and thermal Enthalpies=            -763.714412
 Sum of electronic and thermal Free Energies=         -763.771827

                     E (Thermal)             CV                S
                      KCal/Mol        Cal/Mol-Kelvin    Cal/Mol-Kelvin
 Total                  167.837             56.733            120.839
 Electronic               0.000              0.000              0.000
 Translational            0.889              2.981             42.202
 Rotational               0.889              2.981             33.010
 Vibrational            166.059             50.771             45.626
 Vibration     1          0.595              1.980              5.137
 Vibration     2          0.596              1.977              4.754
 Vibration     3          0.601              1.958              3.731
 Vibration     4          0.607              1.938              3.204
 Vibration     5          0.612              1.924              2.950
 Vibration     6          0.617              1.906              2.714
 Vibration     7          0.631              1.863              2.295
 Vibration     8          0.637              1.842              2.147
 Vibration     9          0.650              1.803              1.917
 Vibration    10          0.670              1.742              1.646
 Vibration    11          0.677              1.719              1.564
 Vibration    12          0.692              1.674              1.419
 Vibration    13          0.703              1.643              1.331
 Vibration    14          0.730              1.566              1.146
 Vibration    15          0.791              1.405              0.858
 Vibration    16          0.795              1.395              0.843
 Vibration    17          0.797              1.391              0.839
 Vibration    18          0.818              1.338              0.765
 Vibration    19          0.872              1.213              0.618
 Vibration    20          0.928              1.093              0.501
 Vibration    21          0.941              1.065              0.477
 Vibration    22          0.959              1.030              0.448

 Optimization completed.
    -- Stationary point found.
 Normal termination of Gaussian 09 at Tue Jan 24 11:55:42 2023.
