 Gaussian 09, Revision D.01,
 Gaussian 09:  ES64L-G09RevD.01 24-Apr-2013

 ----------------------------------------------------------------------
 # opt freq b3lyp/6-311+g(d,p) geom=connectivity pop=(hirshfeld,npa,mbs
 ,chelpg)
 ----------------------------------------------------------------------

 -------------------
 Title Card Required
 -------------------
 Symbolic Z-matrix:
 Charge =  0 Multiplicity = 1

 SCF Done:  E(RB3LYP) =  -1012.67703794     A.U. after   14 cycles
 SCF Done:  E(RB3LYP) =  -1012.69189150     A.U. after   12 cycles
 SCF Done:  E(RB3LYP) =  -1012.69295893     A.U. after   12 cycles
 SCF Done:  E(RB3LYP) =  -1012.69291432     A.U. after   12 cycles
 SCF Done:  E(RB3LYP) =  -1012.69310732     A.U. after    8 cycles
 SCF Done:  E(RB3LYP) =  -1012.69313435     A.U. after   11 cycles
 SCF Done:  E(RB3LYP) =  -1012.69313673     A.U. after   10 cycles
 SCF Done:  E(RB3LYP) =  -1012.69313794     A.U. after    9 cycles
 SCF Done:  E(RB3LYP) =  -1012.69313802     A.U. after    7 cycles
 Optimization completed.
    -- Stationary point found.
 Normal termination of Gaussian 09 at Wed Feb 23 13:51:16 2022.

 ----------------------------------------------------------------------
 #N Geom=AllCheck Guess=TCheck SCRF=Check GenChk RB3LYP/6-311+G(d,p) Fr
 eq
 ----------------------------------------------------------------------

 Structure from the checkpoint file:  "Table7_2.chk"
 -------------------
 Title Card Required
 -------------------
 Charge =  0 Multiplicity = 1

                         Standard orientation:
 ---------------------------------------------------------------------
 Center     Atomic      Atomic             Coordinates (Angstroms)
 Number     Number       Type             X           Y           Z
 ---------------------------------------------------------------------
      1          6           0        0.253432   -1.049900   -0.000263
      2          6           0       -0.582166    0.027123   -0.000251
      3          6           0        0.088079    1.285980   -0.000120
      4          6           0        1.443359    1.133630    0.000034
      5         16           0        1.907259   -0.535913    0.000114
      6          1           0       -0.003923   -2.096534   -0.000183
      7          1           0       -0.422685    2.238272   -0.000188
      8          1           0        2.200593    1.902223    0.000166
      9         17           0       -2.323903   -0.108844    0.000117
 ---------------------------------------------------------------------

 SCF Done:  E(RB3LYP) =  -1012.69313802     A.U. after    1 cycles

 The electronic state is 1-A.
 Alpha  occ. eigenvalues -- -101.56183 -88.89510 -10.24515 -10.21781 -10.21541
 Alpha  occ. eigenvalues --  -10.19727  -9.47612  -7.98108  -7.24089  -7.23081
 Alpha  occ. eigenvalues --   -7.23064  -5.94397  -5.94026  -5.93710  -0.91652
 Alpha  occ. eigenvalues --   -0.85745  -0.75274  -0.72849  -0.59236  -0.56509
 Alpha  occ. eigenvalues --   -0.52244  -0.43927  -0.43056  -0.41445  -0.41357
 Alpha  occ. eigenvalues --   -0.36842  -0.34691  -0.32177  -0.26751  -0.25056
 Alpha virt. eigenvalues --   -0.03803  -0.01118   0.00159   0.01390   0.02314
 Alpha virt. eigenvalues --    0.02758   0.03355   0.04311   0.04855   0.05424
 Alpha virt. eigenvalues --    0.06597   0.08129   0.08907   0.09017   0.09842

 Mulliken charges:
               1
     1  C   -0.214678
     2  C    0.117532
     3  C   -0.460848
     4  C   -0.241747
     5  S   -0.025800
     6  H    0.185202
     7  H    0.150211
     8  H    0.177750
     9  Cl   0.312378
 Sum of Mulliken charges =   0.00000

 Dipole moment (field-independent basis, Debye):
    X=              1.3510    Y=              0.4260    Z=              0.0002  Tot=              1.4166
 Quadrupole moment (field-independent basis, Debye-Ang):
   XX=            -49.4242   YY=            -43.4304   ZZ=            -52.3502
   XY=              1.4043   XZ=              0.0007   YZ=              0.0000

  Exact polarizability:  98.842  -1.994  73.861   0.017  -0.010  45.583
 Approx polarizability: 157.399  -7.518 126.390   0.005   0.002  67.435

 ESP charges:
               1
     1  C   -0.224287
     2  C    0.144237
     3  C   -0.092592
     4  C   -0.205604
     5  S    0.049020
     6  H    0.184459
     7  H    0.113824
     8  H    0.177910
     9  Cl  -0.146967
 Sum of ESP charges =   0.00000

 Summary of Natural Population Analysis:

                                       Natural Population
                Natural  -----------------------------------------------
    Atom  No    Charge         Core      Valence    Rydberg      Total
 -----------------------------------------------------------------------
      C    1   -0.41507      1.99883     4.39414    0.02210     6.41507
      C    2   -0.10474      1.99845     4.08144    0.02485     6.10474
      C    3   -0.26890      1.99892     4.25035    0.01963     6.26890
      C    4   -0.37794      1.99911     4.35799    0.02084     6.37794
      S    5    0.43775      9.99896     5.51640    0.04689    15.56225
      H    6    0.24272      0.00000     0.75561    0.00167     0.75728
      H    7    0.23342      0.00000     0.76496    0.00162     0.76658
      H    8    0.23285      0.00000     0.76569    0.00146     0.76715
     Cl    9    0.01992      9.99959     6.95999    0.02050    16.98008
 =======================================================================
   * Total *    0.00000     27.99387    31.84658    0.15955    60.00000

                      1                      2                      3
                      A                      A                      A
 Frequencies --    208.7717               285.3333               422.2588
 Red. masses --      8.7328                 6.9240                18.6066
 Frc consts  --      0.2243                 0.3321                 1.9547
 IR Inten    --      0.5149                 0.1053                 4.2762

                      4                      5                      6
                      A                      A                      A
 Frequencies --    455.5779               606.0186               636.2541
 Red. masses --      4.6130                 3.3015                 8.3663
 Frc consts  --      0.5641                 0.7144                 1.9955
 IR Inten    --      0.0100                15.5639                 4.2792

                      7                      8                      9
                      A                      A                      A
 Frequencies --    674.3421               773.7745               803.9027
 Red. masses --      1.2267                 1.3007                 6.6794
 Frc consts  --      0.3287                 0.4588                 2.5433
 IR Inten    --      4.1253                86.5326                 1.6121

                     10                     11                     12
                      A                      A                      A
 Frequencies --    851.8244               889.0493               903.1702
 Red. masses --      4.5748                 1.2827                 4.6334
 Frc consts  --      1.9558                 0.5973                 2.2268
 IR Inten    --     24.1503                 0.1584                44.4752

                     13                     14                     15
                      A                      A                      A
 Frequencies --   1095.5575              1116.1429              1222.6628
 Red. masses --      1.3278                 1.4168                 1.4310
 Frc consts  --      0.9389                 1.0400                 1.2604
 IR Inten    --      7.0975                15.4469                 8.6505

                     16                     17                     18
                      A                      A                      A
 Frequencies --   1386.3645              1441.5897              1549.2064
 Red. masses --      2.4679                 7.4457                 6.0444
 Frc consts  --      2.7947                 9.1167                 8.5472
 IR Inten    --     24.3133                 1.5133                29.4137

                     19                     20                     21
                      A                      A                      A
 Frequencies --   3222.1998              3249.4120              3259.0762
 Red. masses --      1.0905                 1.0990                 1.0958
 Frc consts  --      6.6706                 6.8369                 6.8576
 IR Inten    --      0.4281                 0.3130                 3.8111

 - Thermochemistry -
 -------------------
 Temperature   298.150 Kelvin.  Pressure   1.00000 Atm.
 Atom     1 has atomic number  6 and mass  12.00000

 Molecular mass:   117.96440 amu.
 Principal axes and moments of inertia in atomic units:
                           1         2         3
     Eigenvalues --   254.092201214.296561468.38874
           X            0.99994   0.01124   0.00000
           Y           -0.01124   0.99994   0.00000
           Z            0.00000   0.00000   1.00000
 This molecule is an asymmetric top.
 Rotational symmetry number  1.
 Rotational temperatures (Kelvin)      0.34088     0.07133     0.05899
 Rotational constants (GHZ):           7.10270     1.48624     1.22906
 Zero-point vibrational energy     149847.2 (Joules/Mol)
                                   35.81433 (Kcal/Mol)
 Warning -- explicit consideration of   5 degrees of freedom as
           vibrations may cause significant error
 Vibrational temperatures:    300.38   410.53   607.54   655.47   871.92
          (Kelvin)            915.43   970.23  1113.29  1156.64  1225.58
                             1279.14  1299.46  1576.26  1605.88  1759.14
                             1994.67  2074.12  2228.96  4636.02  4675.17
                             4689.08

 Zero-point correction=                           0.057074 (Hartree/Particle)
 Thermal correction to Energy=                    0.062281
 Thermal correction to Enthalpy=                  0.063225
 Thermal correction to Gibbs Free Energy=         0.027450
 Sum of electronic and zero-point Energies=          -1012.636064
 Sum of electronic and thermal Energies=             -1012.630857
 Sum of electronic and thermal Enthalpies=           -1012.629913
 Sum of electronic and thermal Free Energies=        -1012.665688

                     E (Thermal)             CV                S
                      KCal/Mol        Cal/Mol-Kelvin    Cal/Mol-Kelvin
 Total                   39.082             19.040             75.295
 Electronic               0.000              0.000              0.000
 Translational            0.889              2.981             40.211
 Rotational               0.889              2.981             27.607
 Vibrational             37.304             13.079              7.478
 Vibration     1          0.642              1.827              2.054
 Vibration     2          0.683              1.701              1.501
 Vibration     3          0.785              1.422              0.884
 Vibration     4          0.814              1.349              0.779
 Vibration     5          0.965              1.019              0.439

 Optimization completed.
    -- Stationary point found.
 Normal termination of Gaussian 09 at Wed Feb 23 13:59:01 2022.
