 Gaussian 09, Revision D.01,
 Gaussian 09:  ES64L-G09RevD.01 24-Apr-2013

 ----------------------------------------------------------------------
 # opt freq b3lyp/6-311+g(d,p) geom=connectivity pop=(hirshfeld,npa,mbs
 ,chelpg)
 ----------------------------------------------------------------------

 -------------------
 Title Card Required
 -------------------
 Symbolic Z-matrix:
 Charge =  0 Multiplicity = 1

 SCF Done:  E(RB3LYP) =  -592.383289402     A.U. after   14 cycles
 SCF Done:  E(RB3LYP) =  -592.399330450     A.U. after   12 cycles
 SCF Done:  E(RB3LYP) =  -592.400862277     A.U. after   11 cycles
 SCF Done:  E(RB3LYP) =  -592.401058876     A.U. after   11 cycles
 SCF Done:  E(RB3LYP) =  -592.401216279     A.U. after   11 cycles
 SCF Done:  E(RB3LYP) =  -592.401346602     A.U. after   10 cycles
 SCF Done:  E(RB3LYP) =  -592.401363178     A.U. after   11 cycles
 SCF Done:  E(RB3LYP) =  -592.401397224     A.U. after   10 cycles
 SCF Done:  E(RB3LYP) =  -592.401398369     A.U. after    9 cycles
 SCF Done:  E(RB3LYP) =  -592.401398474     A.U. after    7 cycles
 Optimization completed.
    -- Stationary point found.
 Normal termination of Gaussian 09 at Wed Feb 23 13:43:06 2022.

 ----------------------------------------------------------------------
 #N Geom=AllCheck Guess=TCheck SCRF=Check GenChk RB3LYP/6-311+G(d,p) Fr
 eq
 ----------------------------------------------------------------------

 Structure from the checkpoint file:  "Table7_4.chk"
 -------------------
 Title Card Required
 -------------------
 Charge =  0 Multiplicity = 1

                         Standard orientation:
 ---------------------------------------------------------------------
 Center     Atomic      Atomic             Coordinates (Angstroms)
 Number     Number       Type             X           Y           Z
 ---------------------------------------------------------------------
      1          6           0       -0.081801   -1.058060   -0.000038
      2          6           0       -0.982894   -0.028810   -0.000067
      3          6           0       -0.324499    1.245327    0.000013
      4          6           0        1.036495    1.152550   -0.000012
      5         16           0        1.560694   -0.498614    0.000026
      6          1           0       -0.286202   -2.118299   -0.000134
      7          1           0       -0.853210    2.190624   -0.000117
      8          1           0        1.763430    1.950200    0.000003
      9          6           0       -2.477508   -0.198674    0.000037
     10          1           0       -2.928481    0.267061    0.881978
     11          1           0       -2.928730    0.268237   -0.881140
     12          1           0       -2.756661   -1.253999   -0.000609
 ---------------------------------------------------------------------

 SCF Done:  E(RB3LYP) =  -592.401398474     A.U. after    1 cycles

 The electronic state is 1-A.
 Alpha  occ. eigenvalues --  -88.87516 -10.19968 -10.19444 -10.18613 -10.17626
 Alpha  occ. eigenvalues --  -10.17400  -7.96137  -5.92422  -5.92050  -5.91746
 Alpha  occ. eigenvalues --   -0.88344  -0.77026  -0.72989  -0.67748  -0.57157
 Alpha  occ. eigenvalues --   -0.54465  -0.49662  -0.42841  -0.42755  -0.41176
 Alpha  occ. eigenvalues --   -0.38517  -0.37065  -0.36985  -0.34382  -0.25045
 Alpha  occ. eigenvalues --   -0.23842
 Alpha virt. eigenvalues --   -0.01985   0.00065   0.00944   0.02324   0.02906
 Alpha virt. eigenvalues --    0.02933   0.04120   0.05363   0.05536   0.06058
 Alpha virt. eigenvalues --    0.07639   0.07889   0.08228   0.08635   0.10460

 Mulliken charges:
               1
     1  C    0.064933
     2  C    0.276810
     3  C   -0.439593
     4  C   -0.095725
     5  S   -0.080034
     6  H    0.154478
     7  H    0.124055
     8  H    0.167405
     9  C   -0.613139
    10  H    0.151750
    11  H    0.151704
    12  H    0.137357
 Sum of Mulliken charges =   0.00000

 Dipole moment (field-independent basis, Debye):
    X=             -0.8957    Y=              0.2949    Z=              0.0000  Tot=              0.9430
 Quadrupole moment (field-independent basis, Debye-Ang):
   XX=            -41.2646   YY=            -39.3947   ZZ=            -47.1350
   XY=              1.4113   XZ=              0.0000   YZ=             -0.0001

  Exact polarizability:  93.236  -2.784  77.809  -0.001   0.000  50.166
 Approx polarizability: 144.627  -9.195 131.936  -0.001   0.000  74.709

 ESP charges:
               1
     1  C   -0.322629
     2  C    0.202939
     3  C   -0.170643
     4  C   -0.183720
     5  S    0.019998
     6  H    0.198199
     7  H    0.113478
     8  H    0.162387
     9  C   -0.166634
    10  H    0.053092
    11  H    0.053029
    12  H    0.040507
 Sum of ESP charges =   0.00000

 Summary of Natural Population Analysis:

                                       Natural Population
                Natural  -----------------------------------------------
    Atom  No    Charge         Core      Valence    Rydberg      Total
 -----------------------------------------------------------------------
      C    1   -0.39592      1.99893     4.37635    0.02064     6.39592
      C    2   -0.08792      1.99899     4.07188    0.01705     6.08792
      C    3   -0.25382      1.99900     4.23686    0.01796     6.25382
      C    4   -0.38622      1.99912     4.36568    0.02142     6.38622
      S    5    0.40699      9.99896     5.54632    0.04774    15.59301
      H    6    0.22603      0.00000     0.77235    0.00162     0.77397
      H    7    0.21691      0.00000     0.78155    0.00155     0.78309
      H    8    0.22710      0.00000     0.77139    0.00150     0.77290
      C    9   -0.58373      1.99929     4.57484    0.00961     6.58373
      H   10    0.21096      0.00000     0.78759    0.00146     0.78904
      H   11    0.21095      0.00000     0.78760    0.00146     0.78905
      H   12    0.20868      0.00000     0.79004    0.00127     0.79132
 =======================================================================
   * Total *    0.00000     19.99429    31.86245    0.14326    52.00000

                      1                      2                      3
                      A                      A                      A
 Frequencies --    114.4733               232.6704               322.1753
 Red. masses --      1.0641                 3.2982                 2.6963
 Frc consts  --      0.0082                 0.1052                 0.1649
 IR Inten    --      0.1126                 3.6693                 0.9516

                      4                      5                      6
                      A                      A                      A
 Frequencies --    457.5278               543.3401               601.8423
 Red. masses --      4.5024                 6.6431                 2.8276
 Frc consts  --      0.5553                 1.1555                 0.6034
 IR Inten    --      0.0130                 0.4149                14.5167

                      7                      8                      9
                      A                      A                      A
 Frequencies --    663.5125               686.0882               769.4012
 Red. masses --      6.1683                 1.2342                 1.2113
 Frc consts  --      1.6000                 0.3423                 0.4225
 IR Inten    --      0.5480                 5.1260                81.9559

                     10                     11                     12
                      A                      A                      A
 Frequencies --    824.4023               855.4316               891.0596
 Red. masses --      5.3531                 4.4250                 1.2769
 Frc consts  --      2.1436                 1.9078                 0.5974
 IR Inten    --      6.1353                19.8413                 0.0076

                     13                     14                     15
                      A                      A                      A
 Frequencies --    946.0627              1010.4733              1059.9922
 Red. masses --      3.0555                 1.4384                 1.4836
 Frc consts  --      1.6113                 0.8654                 0.9822
 IR Inten    --      3.0650                 7.9816                 1.7841

                     16                     17                     18
                      A                      A                      A
 Frequencies --   1106.1048              1177.8093              1255.2714
 Red. masses --      1.1114                 1.5346                 1.5238
 Frc consts  --      0.8012                 1.2543                 1.4147
 IR Inten    --      4.2011                 2.6379                 3.4794

                     19                     20                     21
                      A                      A                      A
 Frequencies --   1402.3960              1417.9965              1447.8502
 Red. masses --      2.3158                 1.4152                 4.9125
 Frc consts  --      2.6834                 1.6766                 6.0674
 IR Inten    --      3.6449                 2.1608                 4.4779

                     22                     23                     24
                      A                      A                      A
 Frequencies --   1485.2568              1497.0799              1588.8650
 Red. masses --      1.0428                 1.1586                 4.9602
 Frc consts  --      1.3553                 1.5300                 7.3777
 IR Inten    --      7.5863                12.6517                 3.3164

                     25                     26                     27
                      A                      A                      A
 Frequencies --   3022.3371              3069.2058              3102.7865
 Red. masses --      1.0371                 1.1006                 1.0999
 Frc consts  --      5.5815                 6.1087                 6.2388
 IR Inten    --     35.1748                18.3230                17.7338

                     28                     29                     30
                      A                      A                      A
 Frequencies --   3191.2599              3234.1839              3244.0196
 Red. masses --      1.0909                 1.0939                 1.0974
 Frc consts  --      6.5457                 6.7417                 6.8044
 IR Inten    --      4.9807                 0.7671                 0.5827

 - Thermochemistry -
 -------------------
 Temperature   298.150 Kelvin.  Pressure   1.00000 Atm.
 Atom     1 has atomic number  6 and mass  12.00000

 Molecular mass:    98.01902 amu.
 Principal axes and moments of inertia in atomic units:
                           1         2         3
     Eigenvalues --   259.87998 740.29708 988.98924
           X            0.99958   0.02907   0.00000
           Y           -0.02907   0.99958   0.00000
           Z            0.00000   0.00000   1.00000
 This molecule is an asymmetric top.
 Rotational symmetry number  1.
 Rotational temperatures (Kelvin)      0.33328     0.11700     0.08758
 Rotational constants (GHZ):           6.94452     2.43786     1.82483
 Zero-point vibrational energy     246555.6 (Joules/Mol)
                                   58.92820 (Kcal/Mol)
 Warning -- explicit consideration of   6 degrees of freedom as
           vibrations may cause significant error
 Vibrational temperatures:    164.70   334.76   463.54   658.28   781.74
          (Kelvin)            865.92   954.65   987.13  1107.00  1186.13
                             1230.77  1282.03  1361.17  1453.84  1525.09
                             1591.44  1694.60  1806.05  2017.73  2040.18
                             2083.13  2136.95  2153.96  2286.02  4348.46
                             4415.90  4464.21  4591.51  4653.26  4667.41

 Zero-point correction=                           0.093908 (Hartree/Particle)
 Thermal correction to Energy=                    0.099688
 Thermal correction to Enthalpy=                  0.100632
 Thermal correction to Gibbs Free Energy=         0.064314
 Sum of electronic and zero-point Energies=           -592.307490
 Sum of electronic and thermal Energies=              -592.301710
 Sum of electronic and thermal Enthalpies=            -592.300766
 Sum of electronic and thermal Free Energies=         -592.337085

                     E (Thermal)             CV                S
                      KCal/Mol        Cal/Mol-Kelvin    Cal/Mol-Kelvin
 Total                   62.555             21.286             76.439
 Electronic               0.000              0.000              0.000
 Translational            0.889              2.981             39.658
 Rotational               0.889              2.981             26.745
 Vibrational             60.778             15.325             10.036
 Vibration     1          0.607              1.937              3.192
 Vibration     2          0.653              1.791              1.858
 Vibration     3          0.707              1.631              1.299
 Vibration     4          0.816              1.344              0.773
 Vibration     5          0.898              1.154              0.558
 Vibration     6          0.960              1.028              0.446

 Optimization completed.
    -- Stationary point found.
 Normal termination of Gaussian 09 at Wed Feb 23 13:50:01 2022.
