 Gaussian 09, Revision D.01,
 Gaussian 09:  ES64L-G09RevD.01 24-Apr-2013

 ----------------------------------------------------------------------
 # opt freq=noraman b3lyp/6-311+g(d,p) pop=(npa,hirshfeld,chelpg,mbs) g
 eom=connectivity
 ----------------------------------------------------------------------

 -------------------
 Title Card Required
 -------------------
 Symbolic Z-matrix:
 Charge =  0 Multiplicity = 1

 SCF Done:  E(RB3LYP) =  -688.606598323     A.U. after   15 cycles
 SCF Done:  E(RB3LYP) =  -688.649359231     A.U. after   13 cycles
 SCF Done:  E(RB3LYP) =  -688.698161921     A.U. after   15 cycles
 SCF Done:  E(RB3LYP) =  -688.718489316     A.U. after   14 cycles
 SCF Done:  E(RB3LYP) =  -688.720075444     A.U. after   13 cycles
 SCF Done:  E(RB3LYP) =  -688.720625549     A.U. after   13 cycles
 SCF Done:  E(RB3LYP) =  -688.710365430     A.U. after   16 cycles
 SCF Done:  E(RB3LYP) =  -688.724224531     A.U. after   15 cycles
 SCF Done:  E(RB3LYP) =  -688.728334352     A.U. after   14 cycles
 SCF Done:  E(RB3LYP) =  -688.733545056     A.U. after   15 cycles
 SCF Done:  E(RB3LYP) =  -688.750459283     A.U. after   12 cycles
 SCF Done:  E(RB3LYP) =  -688.750588921     A.U. after   12 cycles
 SCF Done:  E(RB3LYP) =  -688.750782728     A.U. after   11 cycles
 SCF Done:  E(RB3LYP) =  -688.750818697     A.U. after   12 cycles
 SCF Done:  E(RB3LYP) =  -688.750865378     A.U. after   11 cycles
 SCF Done:  E(RB3LYP) =  -688.750891165     A.U. after   12 cycles
 SCF Done:  E(RB3LYP) =  -688.750906579     A.U. after   11 cycles
 SCF Done:  E(RB3LYP) =  -688.750909093     A.U. after   10 cycles
 SCF Done:  E(RB3LYP) =  -688.750909498     A.U. after    9 cycles
 Optimization completed.
    -- Stationary point found.
 Normal termination of Gaussian 09 at Fri Jan 13 14:54:17 2023.

 ----------------------------------------------------------------------
 #N Geom=AllCheck Guess=TCheck SCRF=Check GenChk RB3LYP/6-311+G(d,p) Fr
 eq
 ----------------------------------------------------------------------

 Structure from the checkpoint file:  "Chart9_2.chk"
 -------------------
 Title Card Required
 -------------------
 Charge =  0 Multiplicity = 1

                         Standard orientation:
 ---------------------------------------------------------------------
 Center     Atomic      Atomic             Coordinates (Angstroms)
 Number     Number       Type             X           Y           Z
 ---------------------------------------------------------------------
      1          6           0       -2.341602    0.633919    0.067069
      2          6           0       -2.070988   -0.754533   -0.089801
      3          6           0       -3.147570   -1.657365   -0.161489
      4          6           0       -4.439209   -1.166649   -0.077713
      5          6           0       -4.685461    0.214988    0.078157
      6          6           0       -3.647836    1.130362    0.153207
      7          6           0       -0.104169    0.367723   -0.018863
      8          6           0       -0.648813   -0.897343   -0.142009
      9          1           0       -2.967072   -2.720158   -0.280941
     10          1           0       -5.279266   -1.849552   -0.131932
     11          1           0       -5.709244    0.566189    0.140056
     12          1           0       -3.841353    2.190267    0.273271
     13          1           0       -0.115778   -1.822452   -0.274226
     14          7           0       -1.134924    1.279583    0.108331
     15          1           0       -0.949501    2.270792    0.161757
     16          6           0        1.254050    0.967982   -0.036784
     17          8           0        1.351362    2.200330   -0.056852
     18          6           0        2.444161   -1.281592    0.120310
     19          6           0        3.689341    0.809791   -0.107176
     20          6           0        3.925268   -1.519663    0.448077
     21          1           0        2.162469   -1.789813   -0.809924
     22          1           0        1.779939   -1.626689    0.914310
     23          6           0        4.640360   -0.377477   -0.289064
     24          1           0        3.888997    1.359200    0.819542
     25          1           0        3.720508    1.530986   -0.924763
     26          1           0        4.085790   -1.430346    1.526733
     27          1           0        4.260057   -2.512079    0.141011
     28          1           0        5.637810   -0.172641    0.103154
     29          1           0        4.741562   -0.619536   -1.351531
     30          7           0        2.359066    0.177894   -0.039079
 ---------------------------------------------------------------------

 SCF Done:  E(RB3LYP) =  -688.750909498     A.U. after    1 cycles

 The electronic state is 1-A.
 Alpha  occ. eigenvalues --  -19.08679 -14.35610 -14.34900 -10.27880 -10.22139
 Alpha  occ. eigenvalues --  -10.21766 -10.21172 -10.20972 -10.18944 -10.18601
 Alpha  occ. eigenvalues --  -10.17789 -10.17745 -10.17607 -10.17597 -10.17480
 Alpha  occ. eigenvalues --  -10.16951  -1.04415  -0.98596  -0.95100  -0.84766
 Alpha  occ. eigenvalues --   -0.81010  -0.79025  -0.75631  -0.74537  -0.73033
 Alpha  occ. eigenvalues --   -0.67031  -0.63647  -0.61107  -0.60282  -0.59297
 Alpha  occ. eigenvalues --   -0.56558  -0.54612  -0.51813  -0.50655  -0.48739
 Alpha  occ. eigenvalues --   -0.46230  -0.44759  -0.44623  -0.44529  -0.43895
 Alpha  occ. eigenvalues --   -0.43516  -0.42409  -0.42124  -0.41150  -0.39259
 Alpha  occ. eigenvalues --   -0.37784  -0.37011  -0.36705  -0.36551  -0.35046
 Alpha  occ. eigenvalues --   -0.34508  -0.33688  -0.29000  -0.26697  -0.25139
 Alpha  occ. eigenvalues --   -0.23152  -0.21839
 Alpha virt. eigenvalues --   -0.04833  -0.00710   0.00266   0.00767   0.01315
 Alpha virt. eigenvalues --    0.01537   0.01757   0.02009   0.02546   0.03583
 Alpha virt. eigenvalues --    0.04022   0.04766   0.04967   0.05544   0.05837

 Mulliken charges:
               1
     1  C   -0.646296
     2  C    0.878637
     3  C   -0.497746
     4  C   -0.137111
     5  C   -0.215110
     6  C   -0.773033
     7  C    0.022643
     8  C    0.663014
     9  H    0.113317
    10  H    0.122101
    11  H    0.124159
    12  H    0.111239
    13  H    0.119669
    14  N   -0.072288
    15  H    0.308723
    16  C    0.093980
    17  O   -0.370886
    18  C   -0.103166
    19  C   -0.078693
    20  C   -0.533552
    21  H    0.159135
    22  H    0.162236
    23  C   -0.426923
    24  H    0.163126
    25  H    0.175797
    26  H    0.161153
    27  H    0.162398
    28  H    0.160219
    29  H    0.158151
    30  N   -0.004893
 Sum of Mulliken charges =   0.00000

 Dipole moment (field-independent basis, Debye):
    X=              2.0532    Y=             -2.5620    Z=              0.2368  Tot=              3.2917
 Quadrupole moment (field-independent basis, Debye-Ang):
   XX=            -80.9934   YY=            -94.0555   ZZ=            -98.5457
   XY=             -8.7108   XZ=             -0.0717   YZ=              1.3405

  Exact polarizability: 264.625   7.092 167.938  -0.938   3.394 101.059
 Approx polarizability: 350.306  19.000 294.388  -1.585  10.241 159.816

 ESP charges:
               1
     1  C    0.248355
     2  C    0.214423
     3  C   -0.275641
     4  C   -0.063184
     5  C   -0.109101
     6  C   -0.251909
     7  C    0.065571
     8  C   -0.378345
     9  H    0.135146
    10  H    0.080484
    11  H    0.097135
    12  H    0.139409
    13  H    0.173778
    14  N   -0.448814
    15  H    0.355103
    16  C    0.581717
    17  O   -0.604580
    18  C    0.192607
    19  C    0.100580
    20  C    0.039044
    21  H   -0.017031
    22  H   -0.027544
    23  C   -0.009932
    24  H    0.034153
    25  H    0.034155
    26  H    0.005675
    27  H   -0.009104
    28  H    0.003062
    29  H    0.015960
    30  N   -0.321174
 Sum of ESP charges =   0.00000

 Summary of Natural Population Analysis:

                                       Natural Population
                Natural  -----------------------------------------------
    Atom  No    Charge         Core      Valence    Rydberg      Total
 -----------------------------------------------------------------------
      C    1    0.16808      1.99899     3.81260    0.02032     5.83192
      C    2   -0.10477      1.99903     4.08839    0.01736     6.10477
      C    3   -0.18206      1.99907     4.16600    0.01698     6.18206
      C    4   -0.22883      1.99918     4.21110    0.01855     6.22883
      C    5   -0.20022      1.99919     4.18252    0.01851     6.20022
      C    6   -0.23392      1.99907     4.21803    0.01681     6.23392
      C    7    0.08144      1.99907     3.89743    0.02205     5.91856
      C    8   -0.24034      1.99889     4.22641    0.01504     6.24034
      H    9    0.20584      0.00000     0.79247    0.00169     0.79416
      H   10    0.20507      0.00000     0.79346    0.00147     0.79493
      H   11    0.20517      0.00000     0.79340    0.00142     0.79483
      H   12    0.21066      0.00000     0.78749    0.00185     0.78934
      H   13    0.21614      0.00000     0.78200    0.00185     0.78386
      N   14   -0.52610      1.99925     5.51112    0.01572     7.52610
      H   15    0.43196      0.00000     0.56535    0.00270     0.56804
      C   16    0.64756      1.99918     3.31352    0.03974     5.35244
      O   17   -0.66390      1.99978     6.65197    0.01215     8.66390
      C   18   -0.17329      1.99931     4.15779    0.01618     6.17329
      C   19   -0.16749      1.99931     4.14965    0.01852     6.16749
      C   20   -0.38948      1.99930     4.37690    0.01328     6.38948
      H   21    0.18800      0.00000     0.80980    0.00220     0.81200
      H   22    0.20673      0.00000     0.79088    0.00239     0.79327
      C   23   -0.39619      1.99930     4.38352    0.01338     6.39619
      H   24    0.19689      0.00000     0.80106    0.00205     0.80311
      H   25    0.21552      0.00000     0.78261    0.00186     0.78448
      H   26    0.19952      0.00000     0.79862    0.00186     0.80048
      H   27    0.21042      0.00000     0.78804    0.00154     0.78958
      H   28    0.21195      0.00000     0.78655    0.00150     0.78805
      H   29    0.19838      0.00000     0.79980    0.00182     0.80162
      N   30   -0.49275      1.99929     5.47503    0.01843     7.49275
 =======================================================================
   * Total *    0.00000     31.98721    81.69354    0.31925   114.00000

                      1                      2                      3
                      A                      A                      A
 Frequencies --     30.6238                62.2749                93.4501
 Red. masses --      3.6926                 3.5087                 3.8499
 Frc consts  --      0.0020                 0.0080                 0.0198
 IR Inten    --      1.3427                 0.0857                 1.4936

                      4                      5                      6
                      A                      A                      A
 Frequencies --    111.8698               129.6783               210.0983
 Red. masses --      4.2612                 4.8314                 2.9743
 Frc consts  --      0.0314                 0.0479                 0.0774
 IR Inten    --      2.4747                 0.0990                 0.7110

                      7                      8                      9
                      A                      A                      A
 Frequencies --    215.4470               250.3004               257.9921
 Red. masses --      4.9399                 3.6445                 1.8270
 Frc consts  --      0.1351                 0.1345                 0.0716
 IR Inten    --      5.4858                 0.0641                 0.3528

                     10                     11                     12
                      A                      A                      A
 Frequencies --    288.5296               295.3494               384.6751
 Red. masses --      5.1558                 4.8326                 7.4629
 Frc consts  --      0.2529                 0.2484                 0.6506
 IR Inten    --      1.6096                 2.6946                18.0120

                     13                     14                     15
                      A                      A                      A
 Frequencies --    438.7861               459.5900               553.5597
 Red. masses --      2.9634                 4.7198                 1.7890
 Frc consts  --      0.3362                 0.5874                 0.3230
 IR Inten    --      6.2772                 0.2674                41.4652

                     16                     17                     18
                      A                      A                      A
 Frequencies --    575.1160               585.3846               589.4365
 Red. masses --      2.5532                 2.3649                 3.1336
 Frc consts  --      0.4976                 0.4775                 0.6415
 IR Inten    --      5.8941                 9.4330                12.7735

                     19                     20                     21
                      A                      A                      A
 Frequencies --    609.0471               622.0457               632.5881
 Red. masses --      4.5169                 4.0582                 4.0199
 Frc consts  --      0.9872                 0.9252                 0.9478
 IR Inten    --      8.7788                 7.9371                 7.2580

                     22                     23                     24
                      A                      A                      A
 Frequencies --    736.0384               742.4022               754.5499
 Red. masses --      2.8986                 1.4863                 1.9770
 Frc consts  --      0.9252                 0.4826                 0.6632
 IR Inten    --      8.4871                 4.6870                86.8938

                     25                     26                     27
                      A                      A                      A
 Frequencies --    778.6170               800.7419               816.0260
 Red. masses --      5.0929                 3.4821                 1.8116
 Frc consts  --      1.8191                 1.3155                 0.7108
 IR Inten    --     11.1827                 1.1333                21.7938

                     28                     29                     30
                      A                      A                      A
 Frequencies --    856.7746               860.2749               880.3519
 Red. masses --      1.5838                 1.8337                 1.9623
 Frc consts  --      0.6850                 0.7996                 0.8960
 IR Inten    --      1.4891                 4.9891                 4.5219

                     31                     32                     33
                      A                      A                      A
 Frequencies --    898.8338               907.9444               921.1381
 Red. masses --      3.6078                 4.9181                 2.5292
 Frc consts  --      1.7173                 2.3887                 1.2644
 IR Inten    --      0.5912                 0.3712                 5.0010

                     34                     35                     36
                      A                      A                      A
 Frequencies --    940.9025               945.0273               981.1429
 Red. masses --      1.5038                 1.3625                 1.2786
 Frc consts  --      0.7844                 0.7169                 0.7252
 IR Inten    --      1.0309                 1.6963                 0.0012

                     37                     38                     39
                      A                      A                      A
 Frequencies --    985.4878              1009.9046              1031.5236
 Red. masses --      1.7297                 3.4022                 2.2525
 Frc consts  --      0.9897                 2.0444                 1.4121
 IR Inten    --      1.9124                 0.6411                 2.0800

                     40                     41                     42
                      A                      A                      A
 Frequencies --   1050.7306              1135.0257              1140.4944
 Red. masses --      2.0040                 1.5878                 1.5877
 Frc consts  --      1.3036                 1.2052                 1.2168
 IR Inten    --      1.4316                 7.7265                 3.0676

                     43                     44                     45
                      A                      A                      A
 Frequencies --   1150.4511              1175.3597              1181.9788
 Red. masses --      1.5245                 1.1595                 1.8035
 Frc consts  --      1.1888                 0.9438                 1.4845
 IR Inten    --     53.1006                 3.5485                 5.7060

                     46                     47                     48
                      A                      A                      A
 Frequencies --   1199.7078              1212.8671              1218.6607
 Red. masses --      1.4039                 2.0980                 1.6055
 Frc consts  --      1.1906                 1.8183                 1.4049
 IR Inten    --     22.4773                21.6013                24.7295

                     49                     50                     51
                      A                      A                      A
 Frequencies --   1251.6226              1252.6235              1276.9554
 Red. masses --      2.0488                 1.2531                 1.2920
 Frc consts  --      1.8911                 1.1585                 1.2412
 IR Inten    --     10.2165                34.3253                 4.7819

                     52                     53                     54
                      A                      A                      A
 Frequencies --   1312.9576              1325.8995              1346.8750
 Red. masses --      3.6236                 1.3476                 1.2780
 Frc consts  --      3.6803                 1.3958                 1.3660
 IR Inten    --      8.3203                 0.6548                 8.0832

                     55                     56                     57
                      A                      A                      A
 Frequencies --   1352.8888              1370.1609              1372.1184
 Red. masses --      2.1558                 1.8287                 2.2489
 Frc consts  --      2.3248                 2.0227                 2.4946
 IR Inten    --     43.6527                29.9774                70.6537

                     58                     59                     60
                      A                      A                      A
 Frequencies --   1379.7427              1430.6049              1443.5891
 Red. masses --      1.8070                 3.0331                 7.5333
 Frc consts  --      2.0268                 3.6574                 9.2496
 IR Inten    --     54.3089                52.8934               505.5307

                     61                     62                     63
                      A                      A                      A
 Frequencies --   1469.4561              1493.6390              1501.2807
 Red. masses --      3.1915                 1.0889                 1.1013
 Frc consts  --      4.0604                 1.4312                 1.4625
 IR Inten    --      7.1091                 4.9530                 6.6439

                     64                     65                     66
                      A                      A                      A
 Frequencies --   1521.0414              1524.4772              1533.0652
 Red. masses --      1.0861                 2.9495                 1.1216
 Frc consts  --      1.4804                 4.0387                 1.5531
 IR Inten    --      0.2581                 2.2878                12.4850

                     67                     68                     69
                      A                      A                      A
 Frequencies --   1556.4563              1610.5306              1652.1445
 Red. masses --      4.7740                 5.5732                 9.1026
 Frc consts  --      6.8141                 8.5172                14.6390
 IR Inten    --    135.2594                 5.0023               216.2419

                     70                     71                     72
                      A                      A                      A
 Frequencies --   1657.1730              3003.0342              3023.7481
 Red. masses --      7.6617                 1.0697                 1.0726
 Frc consts  --     12.3968                 5.6838                 5.7780
 IR Inten    --    131.5308                32.8862                29.1303

                     73                     74                     75
                      A                      A                      A
 Frequencies --   3037.5989              3044.0253              3083.2576
 Red. masses --      1.0687                 1.0618                 1.0936
 Frc consts  --      5.8097                 5.7968                 6.1250
 IR Inten    --     18.3706                29.6256                17.6031

                     76                     77                     78
                      A                      A                      A
 Frequencies --   3093.1802              3095.6874              3103.7095
 Red. masses --      1.0923                 1.0986                 1.1048
 Frc consts  --      6.1576                 6.2030                 6.2702
 IR Inten    --     29.4250                20.5157                43.0003

                     79                     80                     81
                      A                      A                      A
 Frequencies --   3162.7247              3170.4167              3180.6592
 Red. masses --      1.0854                 1.0884                 1.0938
 Frc consts  --      6.3969                 6.4459                 6.5193
 IR Inten    --      0.6182                 2.7584                25.6907

                     82                     83                     84
                      A                      A                      A
 Frequencies --   3190.4955              3273.2204              3628.4981
 Red. masses --      1.0971                 1.0953                 1.0799
 Frc consts  --      6.5796                 6.9138                 8.3771
 IR Inten    --     20.9170                 2.1390               117.3943

 - Thermochemistry -
 -------------------
 Temperature   298.150 Kelvin.  Pressure   1.00000 Atm.
 Atom     1 has atomic number  6 and mass  12.00000

 Molecular mass:   214.11061 amu.
 Principal axes and moments of inertia in atomic units:
                           1         2         3
     Eigenvalues --  1118.171836956.313877983.98894
           X            0.99997  -0.00748   0.00010
           Y            0.00748   0.99997   0.00167
           Z           -0.00011  -0.00167   1.00000
 This molecule is an asymmetric top.
 Rotational symmetry number  1.
 Warning -- assumption of classical behavior for rotation
           may cause significant error
 Rotational temperatures (Kelvin)      0.07746     0.01245     0.01085
 Rotational constants (GHZ):           1.61401     0.25944     0.22605
 Zero-point vibrational energy     654562.8 (Joules/Mol)
                                  156.44427 (Kcal/Mol)
 Warning -- explicit consideration of  19 degrees of freedom as
           vibrations may cause significant error
 Vibrational temperatures:     44.06    89.60   134.45   160.96   186.58
          (Kelvin)            302.28   309.98   360.13   371.19   415.13
                              424.94   553.46   631.31   661.25   796.45
                              827.46   842.24   848.07   876.28   894.98
                              910.15  1058.99  1068.15  1085.63  1120.25
                             1152.09  1174.08  1232.71  1237.74  1266.63
                             1293.22  1306.33  1325.31  1353.75  1359.68
                             1411.64  1417.90  1453.03  1484.13  1511.77
                             1633.05  1640.91  1655.24  1691.08  1700.60
                             1726.11  1745.04  1753.38  1800.80  1802.24
                             1837.25  1889.05  1907.67  1937.85  1946.50
                             1971.35  1974.17  1985.14  2058.32  2077.00
                             2114.22  2149.01  2160.01  2188.44  2193.38
                             2205.74  2239.39  2317.19  2377.06  2384.30
                             4320.69  4350.49  4370.42  4379.67  4436.11
                             4450.39  4454.00  4465.54  4550.45  4561.52
                             4576.25  4590.41  4709.43  5220.59

 Zero-point correction=                           0.249310 (Hartree/Particle)
 Thermal correction to Energy=                    0.262306
 Thermal correction to Enthalpy=                  0.263250
 Thermal correction to Gibbs Free Energy=         0.208918
 Sum of electronic and zero-point Energies=           -688.501600
 Sum of electronic and thermal Energies=              -688.488603
 Sum of electronic and thermal Enthalpies=            -688.487659
 Sum of electronic and thermal Free Energies=         -688.541991

                     E (Thermal)             CV                S
                      KCal/Mol        Cal/Mol-Kelvin    Cal/Mol-Kelvin
 Total                  164.600             51.794            114.352
 Electronic               0.000              0.000              0.000
 Translational            0.889              2.981             41.987
 Rotational               0.889              2.981             32.496
 Vibrational            162.822             45.832             39.868
 Vibration     1          0.594              1.984              5.789
 Vibration     2          0.597              1.972              4.384
 Vibration     3          0.602              1.954              3.587
 Vibration     4          0.607              1.940              3.236
 Vibration     5          0.612              1.924              2.951
 Vibration     6          0.642              1.825              2.043
 Vibration     7          0.645              1.817              1.997
 Vibration     8          0.663              1.762              1.728
 Vibration     9          0.667              1.749              1.675
 Vibration    10          0.685              1.695              1.483
 Vibration    11          0.690              1.682              1.443
 Vibration    12          0.754              1.503              1.021
 Vibration    13          0.799              1.386              0.830
 Vibration    14          0.818              1.340              0.767
 Vibration    15          0.909              1.132              0.537
 Vibration    16          0.931              1.085              0.494
 Vibration    17          0.942              1.063              0.475
 Vibration    18          0.947              1.054              0.468
 Vibration    19          0.968              1.013              0.434

 Optimization completed.
    -- Stationary point found.
 Normal termination of Gaussian 09 at Fri Jan 13 15:07:23 2023.
