 Gaussian 09, Revision D.01,
 Gaussian 09:  ES64L-G09RevD.01 24-Apr-2013

 ----------------------------------------------------------------------
 # opt freq b3lyp/6-311+g(d,p) geom=connectivity pop=(hirshfeld,chelpg,
 mbs,npa)
 ----------------------------------------------------------------------

 -------------------
 Title Card Required
 -------------------
 Symbolic Z-matrix:
 Charge =  0 Multiplicity = 1

 SCF Done:  E(RB3LYP) =  -948.246634175     A.U. after   12 cycles
 SCF Done:  E(RB3LYP) =  -948.257050764     A.U. after   10 cycles
 SCF Done:  E(RB3LYP) =  -948.258583727     A.U. after   10 cycles
 SCF Done:  E(RB3LYP) =  -948.258810662     A.U. after    9 cycles
 SCF Done:  E(RB3LYP) =  -948.258833441     A.U. after    9 cycles
 SCF Done:  E(RB3LYP) =  -948.258836789     A.U. after    8 cycles
 SCF Done:  E(RB3LYP) =  -948.258837037     A.U. after    7 cycles
 SCF Done:  E(RB3LYP) =  -948.258837037     A.U. after    6 cycles
 Optimization completed.
    -- Stationary point found.
 Normal termination of Gaussian 09 at Mon Jan  9 17:32:54 2023.

 ----------------------------------------------------------------------
 #N Geom=AllCheck Guess=TCheck SCRF=Check GenChk RB3LYP/6-311+G(d,p) Fr
 eq
 ----------------------------------------------------------------------

 Structure from the checkpoint file:  "methylchlorosilanes7_Suginome.chk"
 -------------------
 Title Card Required
 -------------------
 Charge =  0 Multiplicity = 1

                         Standard orientation:
 ---------------------------------------------------------------------
 Center     Atomic      Atomic             Coordinates (Angstroms)
 Number     Number       Type             X           Y           Z
 ---------------------------------------------------------------------
      1         14           0       -0.346191    0.373753    0.097548
      2         17           0       -1.841380   -1.041317   -0.391681
      3          6           0       -0.798993    1.959358   -0.800730
      4          1           0       -1.806253    2.283651   -0.526320
      5          1           0       -0.105695    2.767015   -0.546101
      6          1           0       -0.775372    1.820645   -1.884914
      7          6           0       -0.403048    0.602383    1.960241
      8          1           0       -0.207541   -0.335647    2.485403
      9          1           0       -1.386018    0.963330    2.274153
     10          6           0        1.306823   -0.334438   -0.508563
     11          1           0        1.165601   -0.509664   -1.583593
     12          1           0        0.342733    1.335490    2.284304
     13          6           0        1.666279   -1.679669    0.147811
     14          1           0        0.881655   -2.426874    0.007361
     15          1           0        2.589939   -2.082387   -0.281886
     16          1           0        1.833425   -1.567252    1.224085
     17          6           0        2.452712    0.685167   -0.342368
     18          1           0        3.386619    0.280682   -0.747043
     19          1           0        2.253291    1.625955   -0.863046
     20          1           0        2.635118    0.918112    0.712156
 ---------------------------------------------------------------------

 SCF Done:  E(RB3LYP) =  -948.258837037     A.U. after    1 cycles

 The electronic state is 1-A.
 Alpha  occ. eigenvalues -- -101.52330 -66.12195 -10.17310 -10.17247 -10.16574
 Alpha  occ. eigenvalues --  -10.15965 -10.15961  -9.43867  -7.20046  -7.19475
 Alpha  occ. eigenvalues --   -7.19471  -5.29246  -3.65357  -3.64914  -3.64888
 Alpha  occ. eigenvalues --   -0.81236  -0.78806  -0.71542  -0.69662  -0.69092
 Alpha  occ. eigenvalues --   -0.59483  -0.49216  -0.45838  -0.44361  -0.42772
 Alpha  occ. eigenvalues --   -0.41648  -0.41230  -0.40796  -0.40257  -0.39062
 Alpha  occ. eigenvalues --   -0.35927  -0.35562  -0.34657  -0.33499  -0.32190
 Alpha  occ. eigenvalues --   -0.29799  -0.28350
 Alpha virt. eigenvalues --   -0.01294   0.00872   0.01240   0.01609   0.03068
 Alpha virt. eigenvalues --    0.04076   0.04777   0.05111   0.05289   0.05890
 Alpha virt. eigenvalues --    0.06971   0.07435   0.07958   0.08390   0.08553

 Mulliken charges:
               1
     1  Si   0.760911
     2  Cl  -0.165886
     3  C   -0.729484
     4  H    0.175058
     5  H    0.162326
     6  H    0.175938
     7  C   -0.761936
     8  H    0.178479
     9  H    0.177459
    10  C    0.004639
    11  H    0.173945
    12  H    0.166058
    13  C   -0.551893
    14  H    0.159745
    15  H    0.134771
    16  H    0.138685
    17  C   -0.626379
    18  H    0.142406
    19  H    0.141791
    20  H    0.143371
 Sum of Mulliken charges =   0.00000

 Dipole moment (field-independent basis, Debye):
    X=              1.9063    Y=              1.6293    Z=              0.4774  Tot=              2.5527
 Quadrupole moment (field-independent basis, Debye-Ang):
   XX=            -64.0373   YY=            -61.4842   ZZ=            -60.4105
   XY=             -2.6251   XZ=             -1.2856   YZ=             -0.1713

  Exact polarizability: 103.087   1.326  98.626   0.816  -0.552  90.077
 Approx polarizability: 136.636   6.794 134.337   2.741   1.881 127.356

 ESP charges:
               1
     1  Si   0.623998
     2  Cl  -0.322970
     3  C   -0.431412
     4  H    0.107322
     5  H    0.095731
     6  H    0.083739
     7  C   -0.354238
     8  H    0.070898
     9  H    0.083523
    10  C    0.199116
    11  H   -0.042635
    12  H    0.073486
    13  C   -0.267636
    14  H    0.045738
    15  H    0.068519
    16  H    0.056140
    17  C   -0.225886
    18  H    0.055325
    19  H    0.041528
    20  H    0.039714
 Sum of ESP charges =   0.00000

 Summary of Natural Population Analysis:

                                       Natural Population
                Natural  -----------------------------------------------
    Atom  No    Charge         Core      Valence    Rydberg      Total
 -----------------------------------------------------------------------
     Si    1    1.59715      9.99805     2.35436    0.05045    12.40285
     Cl    2   -0.39861      9.99970     7.38840    0.01051    17.39861
      C    3   -1.09411      1.99929     5.08222    0.01260     7.09411
      H    4    0.23868      0.00000     0.76024    0.00108     0.76132
      H    5    0.23067      0.00000     0.76825    0.00109     0.76933
      H    6    0.23726      0.00000     0.76161    0.00114     0.76274
      C    7   -1.09776      1.99929     5.08497    0.01350     7.09776
      H    8    0.23824      0.00000     0.76077    0.00099     0.76176
      H    9    0.23854      0.00000     0.76040    0.00106     0.76146
      C   10   -0.69356      1.99917     4.67118    0.02321     6.69356
      H   11    0.22025      0.00000     0.77784    0.00190     0.77975
      H   12    0.23084      0.00000     0.76809    0.00107     0.76916
      C   13   -0.57691      1.99936     4.56533    0.01222     6.57691
      H   14    0.21351      0.00000     0.78551    0.00098     0.78649
      H   15    0.19925      0.00000     0.79927    0.00148     0.80075
      H   16    0.19399      0.00000     0.80474    0.00127     0.80601
      C   17   -0.57723      1.99936     4.56589    0.01198     6.57723
      H   18    0.20355      0.00000     0.79490    0.00155     0.79645
      H   19    0.20130      0.00000     0.79773    0.00097     0.79870
      H   20    0.19497      0.00000     0.80372    0.00131     0.80503
 =======================================================================
   * Total *    0.00000     29.99423    43.85540    0.15037    74.00000

                      1                      2                      3
                      A                      A                      A
 Frequencies --     44.1545               125.9136               141.1931
 Red. masses --      2.6943                 3.7869                 1.7681
 Frc consts  --      0.0031                 0.0354                 0.0208
 IR Inten    --      0.2462                 1.3917                 0.2080

                      4                      5                      6
                      A                      A                      A
 Frequencies --    154.8728               169.4874               189.8701
 Red. masses --      1.1543                 1.1640                 2.3828
 Frc consts  --      0.0163                 0.0197                 0.0506
 IR Inten    --      0.2506                 0.0462                 2.4027

                      7                      8                      9
                      A                      A                      A
 Frequencies --    197.3242               216.5330               220.4109
 Red. masses --      2.4595                 2.0404                 1.2843
 Frc consts  --      0.0564                 0.0564                 0.0368
 IR Inten    --      0.7129                 3.5556                 0.9727

                     10                     11                     12
                      A                      A                      A
 Frequencies --    240.5548               294.4343               330.5089
 Red. masses --      1.2184                 3.3395                 2.8262
 Frc consts  --      0.0415                 0.1706                 0.1819
 IR Inten    --      0.6049                 0.5450                 5.5872

                     13                     14                     15
                      A                      A                      A
 Frequencies --    409.7719               477.2763               588.7696
 Red. masses --      2.4996                 5.8711                 3.2821
 Frc consts  --      0.2473                 0.7880                 0.6703
 IR Inten    --      4.0539                67.3389                25.8157

                     16                     17                     18
                      A                      A                      A
 Frequencies --    687.5957               699.8221               767.6721
 Red. masses --      3.3257                 1.9034                 1.2442
 Frc consts  --      0.9264                 0.5492                 0.4320
 IR Inten    --     31.3889                 8.6912                 0.7944

                     19                     20                     21
                      A                      A                      A
 Frequencies --    791.9512               840.1378               871.2517
 Red. masses --      2.0557                 1.4976                 1.6244
 Frc consts  --      0.7597                 0.6228                 0.7265
 IR Inten    --     66.2089                95.9157                47.9225

                     22                     23                     24
                      A                      A                      A
 Frequencies --    889.6614               931.5035               979.4717
 Red. masses --      2.2177                 1.1519                 1.4369
 Frc consts  --      1.0342                 0.5889                 0.8122
 IR Inten    --     61.9247                 4.5955                 0.1250

                     25                     26                     27
                      A                      A                      A
 Frequencies --   1031.4649              1082.0021              1184.2996
 Red. masses --      1.2346                 2.5703                 1.8120
 Frc consts  --      0.7739                 1.7729                 1.4974
 IR Inten    --     18.1090                 4.1140                 0.0790

                     28                     29                     30
                      A                      A                      A
 Frequencies --   1273.6755              1298.8563              1305.5670
 Red. masses --      1.5316                 1.2499                 1.2281
 Frc consts  --      1.4639                 1.2424                 1.2333
 IR Inten    --      1.5416                41.9054                21.9664

                     31                     32                     33
                      A                      A                      A
 Frequencies --   1321.8651              1402.2380              1423.3691
 Red. masses --      1.2899                 1.1973                 1.2023
 Frc consts  --      1.3280                 1.3870                 1.4352
 IR Inten    --      0.0469                 2.8951                 3.2301

                     34                     35                     36
                      A                      A                      A
 Frequencies --   1451.9346              1458.7293              1461.3451
 Red. masses --      1.0510                 1.0520                 1.0479
 Frc consts  --      1.3054                 1.3189                 1.3185
 IR Inten    --      0.9975                 1.9921                 6.0447

                     37                     38                     39
                      A                      A                      A
 Frequencies --   1469.9517              1491.2434              1498.4174
 Red. masses --      1.0481                 1.0441                 1.0436
 Frc consts  --      1.3343                 1.3680                 1.3805
 IR Inten    --      7.3210                 0.1470                 3.7984

                     40                     41                     42
                      A                      A                      A
 Frequencies --   1508.7577              1510.9220              2998.9663
 Red. masses --      1.0483                 1.0399                 1.0821
 Frc consts  --      1.4060                 1.3987                 5.7342
 IR Inten    --      8.0223                14.0716                 7.7484

                     43                     44                     45
                      A                      A                      A
 Frequencies --   3010.6897              3014.1876              3026.0269
 Red. masses --      1.0358                 1.0367                 1.0356
 Frc consts  --      5.5315                 5.5495                 5.5869
 IR Inten    --     28.1851                44.9286                 3.3484

                     46                     47                     48
                      A                      A                      A
 Frequencies --   3027.6176              3063.1867              3066.4731
 Red. masses --      1.0355                 1.1017                 1.1001
 Frc consts  --      5.5925                 6.0904                 6.0949
 IR Inten    --      6.0351                 1.0387                66.4515

                     49                     50                     51
                      A                      A                      A
 Frequencies --   3081.4298              3093.6867              3095.3646
 Red. masses --      1.1005                 1.0998                 1.0989
 Frc consts  --      6.1565                 6.2016                 6.2036
 IR Inten    --     32.9006                19.1969                 1.2886

                     52                     53                     54
                      A                      A                      A
 Frequencies --   3097.2634              3105.4208              3109.8193
 Red. masses --      1.0992                 1.1007                 1.1005
 Frc consts  --      6.2126                 6.2538                 6.2703
 IR Inten    --     17.6901                 7.9833                 7.5088

 - Thermochemistry -
 -------------------
 Temperature   298.150 Kelvin.  Pressure   1.00000 Atm.
 Atom     1 has atomic number 14 and mass  27.97693

 Molecular mass:   136.04751 amu.
 Principal axes and moments of inertia in atomic units:
                           1         2         3
     Eigenvalues --   922.779591393.600101668.31145
           X            0.99571  -0.09119  -0.01561
           Y            0.09047   0.99500  -0.04225
           Z            0.01938   0.04066   0.99899
 This molecule is an asymmetric top.
 Rotational symmetry number  1.
 Warning -- assumption of classical behavior for rotation
           may cause significant error
 Rotational temperatures (Kelvin)      0.09386     0.06215     0.05192
 Rotational constants (GHZ):           1.95577     1.29502     1.08178
 Zero-point vibrational energy     443963.6 (Joules/Mol)
                                  106.10984 (Kcal/Mol)
 Warning -- explicit consideration of  15 degrees of freedom as
           vibrations may cause significant error
 Vibrational temperatures:     63.53   181.16   203.15   222.83   243.85
          (Kelvin)            273.18   283.91   311.54   317.12   346.10
                              423.62   475.53   589.57   686.69   847.11
                              989.30  1006.89  1104.51  1139.44  1208.77
                             1253.54  1280.02  1340.22  1409.24  1484.05
                             1556.76  1703.94  1832.53  1868.76  1878.42
                             1901.87  2017.51  2047.91  2089.01  2098.78
                             2102.55  2114.93  2145.56  2155.89  2170.76
                             2173.88  4314.84  4331.71  4336.74  4353.77
                             4356.06  4407.24  4411.97  4433.48  4451.12
                             4453.53  4456.27  4468.00  4474.33

 Zero-point correction=                           0.169097 (Hartree/Particle)
 Thermal correction to Energy=                    0.180441
 Thermal correction to Enthalpy=                  0.181385
 Thermal correction to Gibbs Free Energy=         0.132509
 Sum of electronic and zero-point Energies=           -948.089740
 Sum of electronic and thermal Energies=              -948.078396
 Sum of electronic and thermal Enthalpies=            -948.077452
 Sum of electronic and thermal Free Energies=         -948.126328

                     E (Thermal)             CV                S
                      KCal/Mol        Cal/Mol-Kelvin    Cal/Mol-Kelvin
 Total                  113.229             39.610            102.869
 Electronic               0.000              0.000              0.000
 Translational            0.889              2.981             40.636
 Rotational               0.889              2.981             29.152
 Vibrational            111.451             33.649             33.081
 Vibration     1          0.595              1.980              5.063
 Vibration     2          0.611              1.927              3.008
 Vibration     3          0.615              1.912              2.788
 Vibration     4          0.620              1.897              2.611
 Vibration     5          0.625              1.880              2.441
 Vibration     6          0.633              1.854              2.229
 Vibration     7          0.637              1.844              2.158
 Vibration     8          0.645              1.816              1.988
 Vibration     9          0.647              1.810              1.956
 Vibration    10          0.658              1.778              1.799
 Vibration    11          0.689              1.684              1.448
 Vibration    12          0.713              1.615              1.258
 Vibration    13          0.774              1.449              0.927
 Vibration    14          0.834              1.300              0.717
 Vibration    15          0.946              1.056              0.469

 Optimization completed.
    -- Stationary point found.
 Normal termination of Gaussian 09 at Mon Jan  9 17:34:16 2023.
