 Gaussian 09, Revision D.01,
 Gaussian 09:  ES64L-G09RevD.01 24-Apr-2013

 ----------------------------------------------------------------------
 # opt freq b3lyp/6-311+g(d,p) geom=connectivity pop=(hirshfeld,chelpg,
 mbs,npa)
 ----------------------------------------------------------------------

 ---------
 Figure2_4
 ---------
 Symbolic Z-matrix:
 Charge =  0 Multiplicity = 1

 SCF Done:  E(RB3LYP) =  -582.408978375     A.U. after   23 cycles
 SCF Done:  E(RB3LYP) =  -582.579643325     A.U. after   18 cycles
 SCF Done:  E(RB3LYP) =  -582.595650274     A.U. after   20 cycles
 SCF Done:  E(RB3LYP) =  -582.698219054     A.U. after   19 cycles
 SCF Done:  E(RB3LYP) =  -582.753950951     A.U. after   14 cycles
 SCF Done:  E(RB3LYP) =  -582.784577596     A.U. after   13 cycles
 SCF Done:  E(RB3LYP) =  -582.799700025     A.U. after   13 cycles
 SCF Done:  E(RB3LYP) =  -582.806282043     A.U. after   12 cycles
 SCF Done:  E(RB3LYP) =  -582.816344238     A.U. after   13 cycles
 SCF Done:  E(RB3LYP) =  -582.820301203     A.U. after   11 cycles
 SCF Done:  E(RB3LYP) =  -583.036139819     A.U. after   12 cycles
 SCF Done:  E(RB3LYP) =  -583.037355403     A.U. after   11 cycles
 SCF Done:  E(RB3LYP) =  -583.037753976     A.U. after   10 cycles
 SCF Done:  E(RB3LYP) =  -583.037838121     A.U. after    9 cycles
 SCF Done:  E(RB3LYP) =  -583.037872097     A.U. after    9 cycles
 SCF Done:  E(RB3LYP) =  -583.037884173     A.U. after    9 cycles
 SCF Done:  E(RB3LYP) =  -583.037888654     A.U. after    9 cycles
 SCF Done:  E(RB3LYP) =  -583.037889494     A.U. after    8 cycles
 SCF Done:  E(RB3LYP) =  -583.037889779     A.U. after    7 cycles
 Optimization completed.
    -- Stationary point found.
 Normal termination of Gaussian 09 at Wed Oct 13 16:28:26 2021.

 ----------------------------------------------------------------------
 #N Geom=AllCheck Guess=TCheck SCRF=Check GenChk RB3LYP/6-311+G(d,p) Fr
 eq
 ----------------------------------------------------------------------

 Structure from the checkpoint file:  "Figure2_4.chk"
 ---------
 Figure2_4
 ---------
 Charge =  0 Multiplicity = 1

                         Standard orientation:
 ---------------------------------------------------------------------
 Center     Atomic      Atomic             Coordinates (Angstroms)
 Number     Number       Type             X           Y           Z
 ---------------------------------------------------------------------
      1          6           0       -2.304071    0.658372   -0.046192
      2          6           0       -3.372231   -0.241471   -0.688270
      3          1           0       -4.227093   -0.365178   -0.016147
      4          1           0       -3.739304    0.198266   -1.620949
      5          1           0       -2.970467   -1.229938   -0.913564
      6          6           0       -2.886322    2.044182    0.259231
      7          1           0       -3.733798    1.967834    0.947491
      8          1           0       -2.142447    2.704975    0.715629
      9          1           0       -3.247468    2.526221   -0.654603
     10          6           0       -1.771783    0.021587    1.250891
     11          1           0       -1.158058    0.749219    1.799947
     12          1           0       -2.592464   -0.279443    1.906726
     13          6           0       -1.088642    0.799804   -0.980907
     14          1           0       -1.398128    1.092925   -1.987060
     15          1           0       -0.410360    1.576635   -0.599896
     16          8           0       -0.395533   -0.436712   -1.140611
     17          8           0       -1.033648   -1.172157    0.996476
     18          6           0        0.051741   -1.044914    0.071648
     19          6           0        1.215712   -0.262010    0.718341
     20          6           0        2.441419   -0.048334   -0.178104
     21          1           0        1.500010   -0.807689    1.624026
     22          1           0        0.857353    0.714550    1.056971
     23          6           0        3.520904    0.810852    0.492117
     24          1           0        2.878289   -1.014889   -0.452328
     25          1           0        2.128376    0.422084   -1.116549
     26          1           0        3.093803    1.785892    0.757734
     27          1           0        3.820801    0.343943    1.438321
     28          6           0        4.757301    1.019701   -0.387028
     29          1           0        4.494483    1.512149   -1.328590
     30          1           0        5.231792    0.065160   -0.635666
     31          6           0        0.433801   -2.470125   -0.297942
     32          1           0        1.202257   -2.472551   -1.071163
     33          1           0        0.803473   -3.000007    0.581863
     34          1           0       -0.449184   -2.985376   -0.677076
     35          1           0        5.504614    1.640308    0.115252
 ---------------------------------------------------------------------

 SCF Done:  E(RB3LYP) =  -583.037889779     A.U. after    1 cycles

 The electronic state is 1-A.
 Alpha  occ. eigenvalues --  -19.12506 -19.12392 -10.27427 -10.21844 -10.21748
 Alpha  occ. eigenvalues --  -10.18769 -10.16895 -10.16743 -10.16718 -10.16484
 Alpha  occ. eigenvalues --  -10.15884 -10.15630 -10.15499  -1.07145  -1.00283
 Alpha  occ. eigenvalues --   -0.83513  -0.80288  -0.76418  -0.72261  -0.69264
 Alpha  occ. eigenvalues --   -0.68419  -0.67519  -0.64964  -0.59758  -0.58182
 Alpha  occ. eigenvalues --   -0.52722  -0.51306  -0.49629  -0.47574  -0.47049
 Alpha  occ. eigenvalues --   -0.46430  -0.45004  -0.43275  -0.42536  -0.41614
 Alpha  occ. eigenvalues --   -0.41155  -0.39289  -0.38936  -0.38316  -0.38138
 Alpha  occ. eigenvalues --   -0.37490  -0.36950  -0.36746  -0.35235  -0.34875
 Alpha  occ. eigenvalues --   -0.33841  -0.33620  -0.32788  -0.31984  -0.30953
 Alpha  occ. eigenvalues --   -0.26261  -0.26095
 Alpha virt. eigenvalues --   -0.00244   0.00874   0.01569   0.01783   0.02539
 Alpha virt. eigenvalues --    0.03103   0.03298   0.03851   0.04577   0.05024
 Alpha virt. eigenvalues --    0.05381   0.05811   0.05992   0.06781   0.07280

 Mulliken charges:
               1
     1  C    0.355443
     2  C   -0.389669
     3  H    0.137085
     4  H    0.137377
     5  H    0.176239
     6  C   -0.488593
     7  H    0.143817
     8  H    0.140051
     9  H    0.143789
    10  C   -0.289695
    11  H    0.143035
    12  H    0.159855
    13  C   -0.303269
    14  H    0.159523
    15  H    0.148527
    16  O    0.048238
    17  O    0.032393
    18  C   -1.043159
    19  C    0.295599
    20  C   -0.129132
    21  H    0.164670
    22  H    0.156730
    23  C   -0.223820
    24  H    0.131274
    25  H    0.147986
    26  H    0.131622
    27  H    0.136964
    28  C   -0.610750
    29  H    0.133982
    30  H    0.134186
    31  C   -0.489604
    32  H    0.154870
    33  H    0.153493
    34  H    0.163699
    35  H    0.137243
 Sum of Mulliken charges =   0.00000

 Dipole moment (field-independent basis, Debye):
    X=              0.0171    Y=              1.6741    Z=              0.4943  Tot=              1.7456
 Quadrupole moment (field-independent basis, Debye-Ang):
   XX=            -81.9185   YY=            -84.6067   ZZ=            -86.6546
   XY=             -3.6562   XZ=              0.6274   YZ=              0.2710

  Exact polarizability: 158.700  -2.661 133.283  -0.888   1.072 122.120
 Approx polarizability: 187.781  -3.029 188.465  -1.257   0.260 185.841

 ESP charges:
               1
     1  C    0.317176
     2  C   -0.176101
     3  H    0.027667
     4  H    0.029174
     5  H    0.043899
     6  C   -0.444627
     7  H    0.095338
     8  H    0.083871
     9  H    0.093394
    10  C    0.289108
    11  H   -0.067025
    12  H    0.012439
    13  C    0.244001
    14  H    0.017485
    15  H   -0.036469
    16  O   -0.577747
    17  O   -0.603162
    18  C    0.831454
    19  C   -0.271401
    20  C    0.058216
    21  H    0.046146
    22  H    0.082157
    23  C    0.176462
    24  H   -0.003008
    25  H   -0.004420
    26  H   -0.042375
    27  H   -0.038949
    28  C   -0.189633
    29  H    0.033574
    30  H    0.033581
    31  C   -0.422470
    32  H    0.093616
    33  H    0.104720
    34  H    0.121173
    35  H    0.042733
 Sum of ESP charges =   0.00000

 Summary of Natural Population Analysis:

                                       Natural Population
                Natural  -----------------------------------------------
    Atom  No    Charge         Core      Valence    Rydberg      Total
 -----------------------------------------------------------------------
      C    1   -0.14272      1.99917     4.12848    0.01507     6.14272
      C    2   -0.57535      1.99929     4.56265    0.01341     6.57535
      H    3    0.19800      0.00000     0.80069    0.00132     0.80200
      H    4    0.19786      0.00000     0.80082    0.00132     0.80214
      H    5    0.21986      0.00000     0.77806    0.00208     0.78014
      C    6   -0.57462      1.99928     4.56341    0.01193     6.57462
      H    7    0.20629      0.00000     0.79226    0.00145     0.79371
      H    8    0.20050      0.00000     0.79787    0.00162     0.79950
      H    9    0.20608      0.00000     0.79246    0.00146     0.79392
      C   10   -0.01674      1.99903     3.99339    0.02431     6.01674
      H   11    0.16348      0.00000     0.83446    0.00206     0.83652
      H   12    0.19175      0.00000     0.80673    0.00152     0.80825
      C   13   -0.01876      1.99904     3.99518    0.02455     6.01876
      H   14    0.19170      0.00000     0.80678    0.00151     0.80830
      H   15    0.16347      0.00000     0.83435    0.00217     0.83653
      O   16   -0.62626      1.99973     6.60653    0.02000     8.62626
      O   17   -0.62459      1.99974     6.60485    0.02000     8.62459
      C   18    0.59809      1.99911     3.36262    0.04019     5.40191
      C   19   -0.42990      1.99913     4.41382    0.01694     6.42990
      C   20   -0.38739      1.99927     4.37347    0.01465     6.38739
      H   21    0.21031      0.00000     0.78767    0.00202     0.78969
      H   22    0.19681      0.00000     0.80096    0.00222     0.80319
      C   23   -0.38007      1.99932     4.36825    0.01250     6.38007
      H   24    0.19259      0.00000     0.80533    0.00207     0.80741
      H   25    0.20173      0.00000     0.79598    0.00229     0.79827
      H   26    0.18598      0.00000     0.81190    0.00212     0.81402
      H   27    0.18780      0.00000     0.81003    0.00216     0.81220
      C   28   -0.57194      1.99938     4.56363    0.00894     6.57194
      H   29    0.19368      0.00000     0.80454    0.00177     0.80632
      H   30    0.19363      0.00000     0.80465    0.00173     0.80637
      C   31   -0.58738      1.99920     4.57586    0.01232     6.58738
      H   32    0.20999      0.00000     0.78849    0.00152     0.79001
      H   33    0.20781      0.00000     0.79071    0.00148     0.79219
      H   34    0.21879      0.00000     0.77907    0.00214     0.78121
      H   35    0.19949      0.00000     0.79927    0.00123     0.80051
 =======================================================================
   * Total *    0.00000     25.99069    77.73523    0.27408   104.00000

                      1                      2                      3
                      A                      A                      A
 Frequencies --     42.4644                56.8975                81.7963
 Red. masses --      3.0970                 1.5968                 3.1643
 Frc consts  --      0.0033                 0.0030                 0.0125
 IR Inten    --      0.1154                 0.0470                 0.3484

                      4                      5                      6
                      A                      A                      A
 Frequencies --    109.0261               132.3978               186.8173
 Red. masses --      2.7760                 2.3416                 1.7667
 Frc consts  --      0.0194                 0.0242                 0.0363
 IR Inten    --      0.1033                 0.1381                 0.4002

                      7                      8                      9
                      A                      A                      A
 Frequencies --    194.8262               211.9528               218.1072
 Red. masses --      1.3539                 1.5505                 1.1481
 Frc consts  --      0.0303                 0.0410                 0.0322
 IR Inten    --      0.0667                 0.8227                 0.0466

                     10                     11                     12
                      A                      A                      A
 Frequencies --    233.1374               245.3593               282.0330
 Red. masses --      1.2599                 1.2881                 2.0775
 Frc consts  --      0.0403                 0.0457                 0.0974
 IR Inten    --      0.8003                 0.6126                 0.2386

                     13                     14                     15
                      A                      A                      A
 Frequencies --    288.5941               308.8568               322.8528
 Red. masses --      3.1938                 3.0899                 3.1720
 Frc consts  --      0.1567                 0.1737                 0.1948
 IR Inten    --      1.7156                 2.3449                 7.0508

                     16                     17                     18
                      A                      A                      A
 Frequencies --    354.1791               380.3428               421.2441
 Red. masses --      2.7747                 2.3312                 2.0144
 Frc consts  --      0.2051                 0.1987                 0.2106
 IR Inten    --      2.8091                 0.3216                 1.7881

                     19                     20                     21
                      A                      A                      A
 Frequencies --    423.0708               477.0305               511.5282
 Red. masses --      1.8254                 2.9606                 3.8314
 Frc consts  --      0.1925                 0.3969                 0.5907
 IR Inten    --      1.5331                 1.0028                 4.6088

                     22                     23                     24
                      A                      A                      A
 Frequencies --    514.9461               554.4050               666.6107
 Red. masses --      4.7083                 3.6603                 4.5237
 Frc consts  --      0.7356                 0.6629                 1.1844
 IR Inten    --      6.4109                 6.0196                 3.3251

                     25                     26                     27
                      A                      A                      A
 Frequencies --    735.3227               748.7086               787.9353
 Red. masses --      1.0910                 4.2165                 1.9843
 Frc consts  --      0.3476                 1.3926                 0.7259
 IR Inten    --      2.1628                 7.1093                 3.4280

                     28                     29                     30
                      A                      A                      A
 Frequencies --    791.3432               846.8804               902.3092
 Red. masses --      1.7248                 2.2200                 1.8622
 Frc consts  --      0.6364                 0.9381                 0.8933
 IR Inten    --      2.0678                37.2296                 0.1935

                     31                     32                     33
                      A                      A                      A
 Frequencies --    908.1511               923.4722               927.8546
 Red. masses --      1.8261                 2.0714                 1.5338
 Frc consts  --      0.8874                 1.0408                 0.7780
 IR Inten    --      8.1392                11.2627                 4.8365

                     34                     35                     36
                      A                      A                      A
 Frequencies --    936.9840               952.6773               960.9182
 Red. masses --      1.7837                 1.4077                 1.3527
 Frc consts  --      0.9226                 0.7527                 0.7359
 IR Inten    --     10.6769                 1.7407                 7.1426

                     37                     38                     39
                      A                      A                      A
 Frequencies --   1020.0016              1025.0361              1025.9870
 Red. masses --      2.4928                 2.1133                 2.8216
 Frc consts  --      1.5281                 1.3083                 1.7499
 IR Inten    --      3.6277                 9.4595                13.2302

                     40                     41                     42
                      A                      A                      A
 Frequencies --   1050.9239              1059.2269              1066.2018
 Red. masses --      2.0523                 1.7803                 2.0245
 Frc consts  --      1.3355                 1.1768                 1.3560
 IR Inten    --     16.5672                 6.1722                 3.8077

                     43                     44                     45
                      A                      A                      A
 Frequencies --   1101.1721              1114.4709              1151.2954
 Red. masses --      2.0303                 3.6283                 2.3488
 Frc consts  --      1.4505                 2.6552                 1.8343
 IR Inten    --     32.5768               180.1348                41.4426

                     46                     47                     48
                      A                      A                      A
 Frequencies --   1199.2427              1204.0135              1219.7864
 Red. masses --      2.2658                 2.4949                 2.0592
 Frc consts  --      1.9199                 2.1309                 1.8052
 IR Inten    --     76.0851                 5.2695                13.8161

                     49                     50                     51
                      A                      A                      A
 Frequencies --   1242.9470              1256.6368              1276.1190
 Red. masses --      1.7598                 1.8274                 1.8990
 Frc consts  --      1.6019                 1.7002                 1.8221
 IR Inten    --     18.0753                 6.4013                13.2727

                     52                     53                     54
                      A                      A                      A
 Frequencies --   1290.9543              1303.1880              1325.4969
 Red. masses --      1.3795                 1.5168                 1.2180
 Frc consts  --      1.3545                 1.5177                 1.2608
 IR Inten    --      9.7913                 0.8464                11.4424

                     55                     56                     57
                      A                      A                      A
 Frequencies --   1335.1791              1343.1827              1367.6178
 Red. masses --      1.1998                 1.3912                 1.3928
 Frc consts  --      1.2602                 1.4787                 1.5349
 IR Inten    --      6.5018                 8.3179                18.4895

                     58                     59                     60
                      A                      A                      A
 Frequencies --   1377.0797              1395.0393              1397.7074
 Red. masses --      1.2912                 1.2960                 1.5240
 Frc consts  --      1.4427                 1.4861                 1.7542
 IR Inten    --      4.2905                 4.4024                 0.4661

                     61                     62                     63
                      A                      A                      A
 Frequencies --   1402.3370              1413.3462              1416.1503
 Red. masses --      1.3106                 1.2561                 1.3715
 Frc consts  --      1.5186                 1.4783                 1.6205
 IR Inten    --      4.0686                 6.3554                33.8393

                     64                     65                     66
                      A                      A                      A
 Frequencies --   1429.7840              1479.1620              1484.4987
 Red. masses --      1.2570                 1.0667                 1.0569
 Frc consts  --      1.5140                 1.3751                 1.3722
 IR Inten    --     22.9538                 4.4566                 1.0461

                     67                     68                     69
                      A                      A                      A
 Frequencies --   1487.1522              1488.7285              1490.3295
 Red. masses --      1.0511                 1.0585                 1.0599
 Frc consts  --      1.3696                 1.3822                 1.3870
 IR Inten    --      0.6967                 1.5251                 1.3183

                     70                     71                     72
                      A                      A                      A
 Frequencies --   1494.0538              1499.1648              1499.8961
 Red. masses --      1.0542                 1.0477                 1.0585
 Frc consts  --      1.3864                 1.3873                 1.4030
 IR Inten    --      6.3820                 6.9549                 2.9311

                     73                     74                     75
                      A                      A                      A
 Frequencies --   1503.6743              1506.0809              1512.0480
 Red. masses --      1.0570                 1.0740                 1.0633
 Frc consts  --      1.4081                 1.4353                 1.4324
 IR Inten    --      5.9583                 1.0054                19.2561

                     76                     77                     78
                      A                      A                      A
 Frequencies --   1513.6432              1519.6129              2981.5751
 Red. masses --      1.0879                 1.0864                 1.0687
 Frc consts  --      1.4685                 1.4780                 5.5974
 IR Inten    --      1.7992                10.9400                29.1793

                     79                     80                     81
                      A                      A                      A
 Frequencies --   2987.2476              3002.0224              3015.0676
 Red. masses --      1.0688                 1.0590                 1.0354
 Frc consts  --      5.6194                 5.6229                 5.5457
 IR Inten    --     61.2825                18.5786                34.3406

                     82                     83                     84
                      A                      A                      A
 Frequencies --   3017.1521              3022.4334              3023.6773
 Red. masses --      1.0394                 1.0596                 1.0892
 Frc consts  --      5.5746                 5.7028                 5.8671
 IR Inten    --     20.5859                27.9232                19.6765

                     85                     86                     87
                      A                      A                      A
 Frequencies --   3023.8535              3036.8384              3051.2669
 Red. masses --      1.0445                 1.0618                 1.0928
 Frc consts  --      5.6271                 5.7695                 5.9944
 IR Inten    --     16.7578                43.5184                 4.9381

                     88                     89                     90
                      A                      A                      A
 Frequencies --   3054.3393              3070.3740              3072.1908
 Red. masses --      1.0420                 1.0952                 1.0965
 Frc consts  --      5.7273                 6.0831                 6.0974
 IR Inten    --      6.0198                13.4326                19.5224

                     91                     92                     93
                      A                      A                      A
 Frequencies --   3074.6136              3076.1540              3079.6172
 Red. masses --      1.1017                 1.1015                 1.1007
 Frc consts  --      6.1361                 6.1409                 6.1503
 IR Inten    --      1.3935                 3.8001                88.6557

                     94                     95                     96
                      A                      A                      A
 Frequencies --   3081.4115              3081.7707              3083.2169
 Red. masses --      1.1017                 1.1009                 1.1010
 Frc consts  --      6.1635                 6.1601                 6.1665
 IR Inten    --     46.8973               107.0382                44.9398

                     97                     98                     99
                      A                      A                      A
 Frequencies --   3117.9596              3127.2033              3134.8871
 Red. masses --      1.0980                 1.1025                 1.1026
 Frc consts  --      6.2892                 6.3523                 6.3846
 IR Inten    --     15.5161                17.2194                18.5106

 - Thermochemistry -
 -------------------
 Temperature   298.150 Kelvin.  Pressure   1.00000 Atm.
 Atom     1 has atomic number  6 and mass  12.00000

 Molecular mass:   186.16198 amu.
 Principal axes and moments of inertia in atomic units:
                           1         2         3
     Eigenvalues --  1319.439164283.718434784.99418
           X            0.99999  -0.00325   0.00016
           Y            0.00324   0.99977   0.02112
           Z           -0.00023  -0.02112   0.99978
 This molecule is an asymmetric top.
 Rotational symmetry number  1.
 Warning -- assumption of classical behavior for rotation
           may cause significant error
 Rotational temperatures (Kelvin)      0.06564     0.02022     0.01810
 Rotational constants (GHZ):           1.36781     0.42130     0.37717
 Zero-point vibrational energy     832266.4 (Joules/Mol)
                                  198.91644 (Kcal/Mol)
 Warning -- explicit consideration of  23 degrees of freedom as
           vibrations may cause significant error
 Vibrational temperatures:     61.10    81.86   117.69   156.86   190.49
          (Kelvin)            268.79   280.31   304.95   313.81   335.43
                              353.02   405.78   415.22   444.38   464.51
                              509.58   547.23   606.08   608.70   686.34
                              735.97   740.89   797.66   959.10  1057.96
                             1077.22  1133.66  1138.56  1218.47  1298.22
                             1306.63  1328.67  1334.97  1348.11  1370.69
                             1382.55  1467.55  1474.80  1476.16  1512.04
                             1523.99  1534.02  1584.34  1603.47  1656.46
                             1725.44  1732.30  1755.00  1788.32  1808.02
                             1836.05  1857.39  1874.99  1907.09  1921.02
                             1932.54  1967.69  1981.31  2007.15  2010.99
                             2017.65  2033.49  2037.52  2057.14  2128.18
                             2135.86  2139.68  2141.95  2144.25  2149.61
                             2156.96  2158.01  2163.45  2166.91  2175.50
                             2177.79  2186.38  4289.82  4297.98  4319.24
                             4338.00  4341.00  4348.60  4350.39  4350.65
                             4369.33  4390.09  4394.51  4417.58  4420.19
                             4423.68  4425.89  4430.88  4433.46  4433.98
                             4436.06  4486.04  4499.34  4510.40

 Zero-point correction=                           0.316994 (Hartree/Particle)
 Thermal correction to Energy=                    0.332097
 Thermal correction to Enthalpy=                  0.333042
 Thermal correction to Gibbs Free Energy=         0.275642
 Sum of electronic and zero-point Energies=           -582.720896
 Sum of electronic and thermal Energies=              -582.705792
 Sum of electronic and thermal Enthalpies=            -582.704848
 Sum of electronic and thermal Free Energies=         -582.762248

                     E (Thermal)             CV                S
                      KCal/Mol        Cal/Mol-Kelvin    Cal/Mol-Kelvin
 Total                  208.394             58.089            120.807
 Electronic               0.000              0.000              0.000
 Translational            0.889              2.981             41.570
 Rotational               0.889              2.981             31.670
 Vibrational            206.617             52.128             47.567
 Vibration     1          0.595              1.980              5.141
 Vibration     2          0.596              1.975              4.562
 Vibration     3          0.600              1.962              3.847
 Vibration     4          0.606              1.942              3.286
 Vibration     5          0.613              1.921              2.911
 Vibration     6          0.632              1.858              2.259
 Vibration     7          0.635              1.847              2.181
 Vibration     8          0.643              1.823              2.027
 Vibration     9          0.646              1.813              1.975
 Vibration    10          0.654              1.790              1.855
 Vibration    11          0.660              1.770              1.764
 Vibration    12          0.681              1.707              1.521
 Vibration    13          0.685              1.695              1.482
 Vibration    14          0.698              1.657              1.368
 Vibration    15          0.708              1.630              1.296
 Vibration    16          0.730              1.567              1.148
 Vibration    17          0.750              1.512              1.038
 Vibration    18          0.784              1.424              0.888
 Vibration    19          0.785              1.420              0.882
 Vibration    20          0.834              1.301              0.718
 Vibration    21          0.867              1.224              0.630
 Vibration    22          0.870              1.217              0.622
 Vibration    23          0.910              1.130              0.535

 Normal termination of Gaussian 09 at Wed Oct 13 16:42:35 2021.
