 Gaussian 09, Revision D.01,
 Gaussian 09:  ES64L-G09RevD.01 24-Apr-2013

 ----------------------------------------------------------------------
 # freq b3lyp/6-311+g(d,p) geom=connectivity pop=(hirshfeld,chelpg,npa,
 mbs)
 ----------------------------------------------------------------------

 ---
 tit
 ---
 Symbolic Z-matrix:
 Charge =  0 Multiplicity = 1

                         Standard orientation:
 ---------------------------------------------------------------------
 Center     Atomic      Atomic             Coordinates (Angstroms)
 Number     Number       Type             X           Y           Z
 ---------------------------------------------------------------------
      1          6           0        1.707196   -0.554881   -0.208100
      2          6           0        1.700462   -1.359200   -1.351618
      3          1           0        1.057104   -1.094019   -2.182565
      4          6           0        2.508085   -2.491029   -1.442712
      5          1           0        2.499505   -3.109495   -2.331052
      6          6           0        3.330793   -2.813152   -0.370479
      7          6           0        3.361263   -2.027419    0.777006
      8          1           0        4.007825   -2.302946    1.601875
      9          6           0        2.551815   -0.893631    0.862700
     10          6           0        2.713770    2.238196    0.690872
     11          6           0        3.365768    3.461436    0.499838
     12          1           0        4.219202    3.706785    1.125533
     13          6           0        2.936423    4.358237   -0.466307
     14          1           0        3.438109    5.305662   -0.623070
     15          6           0        1.831992    3.997322   -1.232612
     16          1           0        1.448987    4.659447   -2.004720
     17          7           0        1.191826    2.841681   -1.080445
     18          6           0        1.607149    1.963420   -0.144692
     19          6           0        0.855927    0.668984   -0.110736
     20          6           0       -0.497664    0.587422   -0.025885
     21          6           0       -1.412183    1.784777    0.151731
     22          1           0       -1.618998    1.906025    1.223117
     23          1           0       -0.945615    2.697688   -0.207494
     24          6           0       -2.736950    1.591762   -0.584808
     25          1           0       -3.429054    2.405408   -0.380425
     26          1           0       -2.563666    1.556445   -1.666805
     27          6           0       -2.554486   -0.768519    0.025234
     28          1           0       -3.067373   -1.709821    0.150721
     29          6           0       -1.206233   -0.682824    0.033920
     30          1           0       -0.648991   -1.604300    0.133313
     31         17           0        4.356469   -4.242900   -0.462223
     32          7           0       -3.381178    0.335202   -0.170814
     33          8           0       -5.206795   -0.945616    0.218193
     34          6           0       -4.760164    0.280424   -0.136139
     35          8           0       -5.483349    1.221490   -0.388049
     36          6           0        2.570196    0.002326    2.074382
     37          1           0        1.544149    0.179734    2.412323
     38          1           0        3.096380   -0.489043    2.897201
     39          6           0        3.263551    1.345633    1.796859
     40          1           0        4.317651    1.146404    1.568346
     41          1           0        3.265152    1.929544    2.724881
     42          6           0       -6.646663   -1.096758    0.280834
     43          1           0       -7.066788   -0.857133   -0.698177
     44          1           0       -7.041847   -0.377352    1.001043
     45          6           0       -6.935543   -2.526453    0.689511
     46          1           0       -6.501824   -2.750908    1.666607
     47          1           0       -8.016594   -2.677028    0.751923
     48          1           0       -6.533685   -3.233396   -0.039914
 ---------------------------------------------------------------------

 SCF Done:  E(RB3LYP) =  -1571.46621636     A.U. after   16 cycles

 The electronic state is 1-A.
 Alpha  occ. eigenvalues -- -101.55306 -19.17079 -19.10437 -14.36567 -14.31329
 Alpha  occ. eigenvalues --  -10.32717 -10.23991 -10.23571 -10.22531 -10.21731
 Alpha  occ. eigenvalues --  -10.21141 -10.21122 -10.20094 -10.19558 -10.19551
 Alpha  occ. eigenvalues --  -10.19260 -10.19235 -10.19183 -10.18909 -10.18814
 Alpha  occ. eigenvalues --  -10.18772 -10.18670 -10.18664 -10.18562 -10.17554
 Alpha  occ. eigenvalues --  -10.17536 -10.17073  -9.46762  -7.23214  -7.22248
 Alpha  occ. eigenvalues --   -7.22217  -1.11911  -1.02644  -0.96889  -0.95324
 Alpha  occ. eigenvalues --   -0.89884  -0.86192  -0.83532  -0.82614  -0.80106
 Alpha  occ. eigenvalues --   -0.79031  -0.77931  -0.77194  -0.75858  -0.74383
 Alpha  occ. eigenvalues --   -0.71011  -0.67317  -0.66731  -0.64698  -0.63896
 Alpha  occ. eigenvalues --   -0.62505  -0.61874  -0.59923  -0.58487  -0.57465
 Alpha  occ. eigenvalues --   -0.56359  -0.53481  -0.52178  -0.50873  -0.50394
 Alpha  occ. eigenvalues --   -0.49730  -0.48991  -0.48557  -0.47494  -0.47324
 Alpha  occ. eigenvalues --   -0.46311  -0.45935  -0.45016  -0.44704  -0.44086
 Alpha  occ. eigenvalues --   -0.43092  -0.42789  -0.42129  -0.41806  -0.41056
 Alpha  occ. eigenvalues --   -0.40800  -0.40547  -0.40288  -0.39818  -0.39346
 Alpha  occ. eigenvalues --   -0.38328  -0.37647  -0.37204  -0.36994  -0.36461
 Alpha  occ. eigenvalues --   -0.35958  -0.35362  -0.34607  -0.33243  -0.32843
 Alpha  occ. eigenvalues --   -0.31618  -0.31226  -0.29734  -0.29119  -0.28428
 Alpha  occ. eigenvalues --   -0.26643  -0.26434  -0.25970  -0.24459  -0.20681
 Alpha virt. eigenvalues --   -0.05821  -0.04100  -0.02471  -0.02105  -0.01081
 Alpha virt. eigenvalues --   -0.00680   0.00065   0.00637   0.00960   0.01057
 Alpha virt. eigenvalues --    0.01409   0.02348   0.02465   0.02750   0.02907

 Mulliken charges:
               1
     1  C   -0.098171
     2  C   -0.417989
     3  H    0.130164
     4  C   -0.767938
     5  H    0.145499
     6  C    0.829576
     7  C   -0.224947
     8  H    0.131927
     9  C   -0.216622
    10  C    1.131305
    11  C    0.044786
    12  H    0.128351
    13  C   -0.240499
    14  H    0.128850
    15  C    0.144935
    16  H    0.127777
    17  N    0.127934
    18  C   -1.734720
    19  C    0.827786
    20  C   -0.254138
    21  C   -0.310956
    22  H    0.178507
    23  H    0.204616
    24  C   -0.742299
    25  H    0.197482
    26  H    0.177976
    27  C    0.103113
    28  H    0.156063
    29  C   -0.388031
    30  H    0.148792
    31  Cl   0.392006
    32  N   -0.049744
    33  O   -0.127326
    34  C    0.289758
    35  O   -0.310084
    36  C   -0.716092
    37  H    0.170865
    38  H    0.146110
    39  C   -0.158756
    40  H    0.181486
    41  H    0.175838
    42  C    0.080392
    43  H    0.161653
    44  H    0.160528
    45  C   -0.508704
    46  H    0.147021
    47  H    0.149866
    48  H    0.146055
 Sum of Mulliken charges =   0.00000

 Dipole moment (field-independent basis, Debye):
    X=              0.3272    Y=              0.7732    Z=              2.1142  Tot=              2.2749
 Quadrupole moment (field-independent basis, Debye-Ang):
   XX=           -161.6410   YY=           -164.3876   ZZ=           -161.2348
   XY=             26.9843   XZ=              3.4209   YZ=              2.2791

  Exact polarizability: 410.770   1.805 325.752  18.413  -5.004 217.214
 Approx polarizability: 559.132  -6.260 464.231  44.991  -9.572 374.669

 ESP charges:
               1
     1  C    0.171595
     2  C   -0.138885
     3  H    0.087834
     4  C   -0.099960
     5  H    0.109814
     6  C    0.096408
     7  C   -0.161448
     8  H    0.116789
     9  C   -0.061977
    10  C   -0.266379
    11  C    0.112236
    12  H    0.075897
    13  C   -0.362902
    14  H    0.130618
    15  C    0.390991
    16  H    0.016901
    17  N   -0.643955
    18  C    0.528676
    19  C   -0.284068
    20  C    0.268245
    21  C   -0.227695
    22  H    0.044364
    23  H    0.083884
    24  C    0.293933
    25  H    0.014969
    26  H   -0.032206
    27  C   -0.063803
    28  H    0.117899
    29  C   -0.210152
    30  H    0.073235
    31  Cl  -0.149386
    32  N   -0.244431
    33  O   -0.439054
    34  C    0.777054
    35  O   -0.606473
    36  C    0.181174
    37  H   -0.073863
    38  H   -0.012102
    39  C    0.120216
    40  H   -0.032133
    41  H   -0.006912
    42  C    0.325564
    43  H    0.008554
    44  H    0.009194
    45  C   -0.242685
    46  H    0.072517
    47  H    0.054090
    48  H    0.077819
 Sum of ESP charges =   0.00000

 Summary of Natural Population Analysis:

                                       Natural Population
                Natural  -----------------------------------------------
    Atom  No    Charge         Core      Valence    Rydberg      Total
 -----------------------------------------------------------------------
      C    1   -0.04154      1.99879     4.02094    0.02181     6.04154
      C    2   -0.16955      1.99906     4.15408    0.01642     6.16955
      H    3    0.21807      0.00000     0.77913    0.00279     0.78193
      C    4   -0.22919      1.99895     4.21191    0.01833     6.22919
      H    5    0.22374      0.00000     0.77463    0.00163     0.77626
      C    6   -0.02927      1.99856     4.00776    0.02294     6.02927
      C    7   -0.22614      1.99886     4.20873    0.01855     6.22614
      H    8    0.22037      0.00000     0.77770    0.00193     0.77963
      C    9   -0.00509      1.99894     3.98874    0.01741     6.00509
      C   10   -0.04673      1.99894     4.03237    0.01542     6.04673
      C   11   -0.15918      1.99906     4.14299    0.01713     6.15918
      H   12    0.20558      0.00000     0.79277    0.00165     0.79442
      C   13   -0.24088      1.99913     4.22523    0.01651     6.24088
      H   14    0.21288      0.00000     0.78552    0.00161     0.78712
      C   15    0.05630      1.99920     3.91836    0.02613     5.94370
      H   16    0.18754      0.00000     0.81079    0.00167     0.81246
      N   17   -0.47334      1.99936     5.45075    0.02323     7.47334
      C   18    0.20369      1.99890     3.77021    0.02720     5.79631
      C   19   -0.06841      1.99874     4.03964    0.03004     6.06841
      C   20    0.00897      1.99890     3.97489    0.01724     5.99103
      C   21   -0.41987      1.99920     4.40722    0.01346     6.41987
      H   22    0.20973      0.00000     0.78834    0.00193     0.79027
      H   23    0.24471      0.00000     0.75319    0.00211     0.75529
      C   24   -0.16205      1.99927     4.14588    0.01690     6.16205
      H   25    0.23157      0.00000     0.76676    0.00167     0.76843
      H   26    0.19746      0.00000     0.80074    0.00180     0.80254
      C   27    0.04708      1.99910     3.93369    0.02013     5.95292
      H   28    0.22416      0.00000     0.77399    0.00185     0.77584
      C   29   -0.29221      1.99907     4.27695    0.01619     6.29221
      H   30    0.22329      0.00000     0.77419    0.00251     0.77671
     Cl   31   -0.00612      9.99962     6.98702    0.01948    17.00612
      N   32   -0.49989      1.99923     5.48061    0.02006     7.49989
      O   33   -0.58179      1.99971     6.56540    0.01667     8.58179
      C   34    0.93618      1.99937     3.01707    0.04738     5.06382
      O   35   -0.64095      1.99974     6.63045    0.01077     8.64095
      C   36   -0.39573      1.99921     4.38150    0.01501     6.39573
      H   37    0.21885      0.00000     0.77953    0.00162     0.78115
      H   38    0.21106      0.00000     0.78730    0.00164     0.78894
      C   39   -0.38567      1.99921     4.37213    0.01433     6.38567
      H   40    0.21102      0.00000     0.78690    0.00208     0.78898
      H   41    0.21300      0.00000     0.78510    0.00190     0.78700
      C   42   -0.03056      1.99922     4.01213    0.01921     6.03056
      H   43    0.18608      0.00000     0.81184    0.00208     0.81392
      H   44    0.18617      0.00000     0.81175    0.00207     0.81383
      C   45   -0.59330      1.99936     4.58530    0.00864     6.59330
      H   46    0.20582      0.00000     0.79256    0.00162     0.79418
      H   47    0.20894      0.00000     0.78989    0.00117     0.79106
      H   48    0.20520      0.00000     0.79316    0.00164     0.79480
 =======================================================================
   * Total *    0.00000     61.97668   137.45775    0.56556   200.00000

                      1                      2                      3
                      A                      A                      A
 Frequencies --     20.0162                28.7303                37.0091
 Red. masses --      4.4659                 8.6088                 3.4279
 Frc consts  --      0.0011                 0.0042                 0.0028
 IR Inten    --      0.2625                 0.1169                 0.4764

                      4                      5                      6
                      A                      A                      A
 Frequencies --     51.1453                64.9744                69.6087
 Red. masses --      4.8643                 2.6662                 4.9450
 Frc consts  --      0.0075                 0.0066                 0.0141
 IR Inten    --      0.1814                 0.3351                 1.2140

                      7                      8                      9
                      A                      A                      A
 Frequencies --     89.9872                90.3930               104.1337
 Red. masses --      4.1456                 4.3744                 3.9418
 Frc consts  --      0.0198                 0.0211                 0.0252
 IR Inten    --      0.4457                 0.1116                 2.2065

                     10                     11                     12
                      A                      A                      A
 Frequencies --    119.9527               129.9049               144.9574
 Red. masses --      3.9179                 3.8511                 4.2279
 Frc consts  --      0.0332                 0.0383                 0.0523
 IR Inten    --      0.9720                 3.8982                 0.5335

                     13                     14                     15
                      A                      A                      A
 Frequencies --    149.1275               185.5857               226.8260
 Red. masses --      4.4270                 4.8185                 5.7013
 Frc consts  --      0.0580                 0.0978                 0.1728
 IR Inten    --      0.8772                 0.6277                 0.5307

                     16                     17                     18
                      A                      A                      A
 Frequencies --    233.8217               252.9102               258.1863
 Red. masses --      4.6408                 4.2118                 1.2699
 Frc consts  --      0.1495                 0.1587                 0.0499
 IR Inten    --      5.8332                 4.3240                 0.3080

                     19                     20                     21
                      A                      A                      A
 Frequencies --    278.5905               290.4431               306.2416
 Red. masses --      3.5231                 2.5866                 3.4568
 Frc consts  --      0.1611                 0.1286                 0.1910
 IR Inten    --      2.6107                 0.9740                 0.8030

                     22                     23                     24
                      A                      A                      A
 Frequencies --    321.2714               354.5502               361.4244
 Red. masses --      4.4901                 4.2399                 3.0292
 Frc consts  --      0.2731                 0.3140                 0.2331
 IR Inten    --      1.9316                 8.4658                 6.2353

                     25                     26                     27
                      A                      A                      A
 Frequencies --    371.7877               390.6421               406.8349
 Red. masses --      4.3662                 4.3399                 4.7446
 Frc consts  --      0.3556                 0.3902                 0.4627
 IR Inten    --      4.1573                 1.6839                13.6997

                     28                     29                     30
                      A                      A                      A
 Frequencies --    456.3678               459.7742               476.5080
 Red. masses --      3.3158                 3.8304                 4.3688
 Frc consts  --      0.4069                 0.4771                 0.5845
 IR Inten    --      0.0834                 3.0502                 9.8362

                     31                     32                     33
                      A                      A                      A
 Frequencies --    492.6768               501.7869               531.9735
 Red. masses --      4.1061                 3.7711                 3.6414
 Frc consts  --      0.5872                 0.5594                 0.6072
 IR Inten    --      1.2194                 2.9619                 8.0316

                     34                     35                     36
                      A                      A                      A
 Frequencies --    547.9183               559.7049               576.9538
 Red. masses --      4.7145                 4.1459                 3.4520
 Frc consts  --      0.8339                 0.7652                 0.6770
 IR Inten    --      2.1327                 9.2615                12.9434

                     37                     38                     39
                      A                      A                      A
 Frequencies --    606.1589               622.8304               646.8664
 Red. masses --      4.3508                 3.2758                 6.3479
 Frc consts  --      0.9419                 0.7487                 1.5650
 IR Inten    --      0.2727                 0.3174                 3.1696

                     40                     41                     42
                      A                      A                      A
 Frequencies --    662.3646               695.6920               710.2751
 Red. masses --      6.9879                 5.0475                 4.9562
 Frc consts  --      1.8063                 1.4393                 1.4732
 IR Inten    --     13.9649                 3.1362                 4.8988

                     43                     44                     45
                      A                      A                      A
 Frequencies --    753.5075               762.5820               775.7806
 Red. masses --      3.7238                 3.1510                 3.8784
 Frc consts  --      1.2457                 1.0796                 1.3752
 IR Inten    --      2.8719                18.8553                33.8668

                     46                     47                     48
                      A                      A                      A
 Frequencies --    782.5173               794.6409               805.1887
 Red. masses --      2.7914                 1.4985                 2.5256
 Frc consts  --      1.0071                 0.5575                 0.9647
 IR Inten    --      6.4533                 3.3311                14.8618

                     49                     50                     51
                      A                      A                      A
 Frequencies --    814.2509               815.4937               832.5732
 Red. masses --      1.9579                 1.2136                 2.7338
 Frc consts  --      0.7648                 0.4755                 1.1165
 IR Inten    --     14.5145                 2.0951                21.6689

                     52                     53                     54
                      A                      A                      A
 Frequencies --    841.9034               842.9866               881.1689
 Red. masses --      1.9652                 4.7366                 2.7871
 Frc consts  --      0.8207                 1.9832                 1.2750
 IR Inten    --     24.0173                29.7243                 7.1441

                     55                     56                     57
                      A                      A                      A
 Frequencies --    890.5329               899.0683               917.9914
 Red. masses --      1.4747                 2.9473                 2.6428
 Frc consts  --      0.6891                 1.4036                 1.3122
 IR Inten    --      5.4295                17.6822                 1.1596

                     58                     59                     60
                      A                      A                      A
 Frequencies --    949.5014               961.9328               967.1321
 Red. masses --      3.6775                 1.4513                 1.2936
 Frc consts  --      1.9534                 0.7912                 0.7129
 IR Inten    --     18.8482                 0.3218                 2.7347

                     61                     62                     63
                      A                      A                      A
 Frequencies --    977.0925               988.5491               992.2480
 Red. masses --      1.4126                 1.9563                 2.4178
 Frc consts  --      0.7946                 1.1264                 1.4025
 IR Inten    --      6.8906                 4.2373                64.5022

                     64                     65                     66
                      A                      A                      A
 Frequencies --    997.7573              1004.8259              1040.3637
 Red. masses --      1.6607                 2.7064                 2.5018
 Frc consts  --      0.9740                 1.6100                 1.5954
 IR Inten    --      4.1851                86.5489                 0.1848

                     67                     68                     69
                      A                      A                      A
 Frequencies --   1043.6981              1070.5309              1085.3184
 Red. masses --      2.8777                 2.0609                 2.5051
 Frc consts  --      1.8469                 1.3915                 1.7386
 IR Inten    --     47.7072                 2.1127                 0.5805

                     70                     71                     72
                      A                      A                      A
 Frequencies --   1102.6020              1120.3550              1130.5348
 Red. masses --      2.2364                 2.1090                 3.5538
 Frc consts  --      1.6019                 1.5597                 2.6761
 IR Inten    --     32.6693                23.4385               280.3748

                     73                     74                     75
                      A                      A                      A
 Frequencies --   1132.5196              1135.9019              1157.2133
 Red. masses --      2.3203                 1.8492                 2.2474
 Frc consts  --      1.7534                 1.4057                 1.7732
 IR Inten    --     39.6335                15.2648                13.4340

                     76                     77                     78
                      A                      A                      A
 Frequencies --   1177.9508              1186.0704              1192.1914
 Red. masses --      1.5461                 1.4314                 1.7857
 Frc consts  --      1.2640                 1.1864                 1.4954
 IR Inten    --      3.4697                 1.5633                 3.2970

                     79                     80                     81
                      A                      A                      A
 Frequencies --   1201.0404              1224.2169              1233.5494
 Red. masses --      1.7503                 2.1167                 1.3493
 Frc consts  --      1.4875                 1.8691                 1.2097
 IR Inten    --      7.8853                 6.7812               108.2191

                     82                     83                     84
                      A                      A                      A
 Frequencies --   1238.1430              1255.3830              1260.0883
 Red. masses --      2.0106                 1.5928                 1.5216
 Frc consts  --      1.8160                 1.4790                 1.4235
 IR Inten    --    134.6640               207.9530               335.0373

                     85                     86                     87
                      A                      A                      A
 Frequencies --   1270.1603              1283.5835              1295.4704
 Red. masses --      1.9402                 3.9152                 1.7470
 Frc consts  --      1.8443                 3.8006                 1.7274
 IR Inten    --     23.6597                49.9019                 1.7484

                     88                     89                     90
                      A                      A                      A
 Frequencies --   1298.2219              1314.6750              1331.1164
 Red. masses --      1.0935                 2.7046                 1.8203
 Frc consts  --      1.0858                 2.7541                 1.9003
 IR Inten    --      0.9852                 1.2662               209.1899

                     91                     92                     93
                      A                      A                      A
 Frequencies --   1336.4865              1355.9088              1366.3239
 Red. masses --      2.5200                 1.8943                 1.3667
 Frc consts  --      2.6521                 2.0519                 1.5033
 IR Inten    --      9.8958               199.8857                 6.1461

                     94                     95                     96
                      A                      A                      A
 Frequencies --   1369.2858              1381.5809              1391.6629
 Red. masses --      1.8757                 1.5602                 1.4069
 Frc consts  --      2.0721                 1.7546                 1.6054
 IR Inten    --    207.8955                 9.0549                 4.2772

                     97                     98                     99
                      A                      A                      A
 Frequencies --   1409.7126              1432.2049              1433.8801
 Red. masses --      1.4530                 3.2399                 1.6369
 Frc consts  --      1.7012                 3.9155                 1.9828
 IR Inten    --    190.5680                 8.3587               112.6440

                    100                    101                    102
                      A                      A                      A
 Frequencies --   1446.1536              1456.4535              1468.7327
 Red. masses --      1.9973                 2.1907                 1.4899
 Frc consts  --      2.4611                 2.7380                 1.8936
 IR Inten    --     31.3136                88.3360                 7.9686

                    103                    104                    105
                      A                      A                      A
 Frequencies --   1473.6435              1479.4290              1486.6789
 Red. masses --      1.2257                 1.3752                 1.0385
 Frc consts  --      1.5683                 1.7734                 1.3524
 IR Inten    --      2.9065                22.5167                 8.2316

                    106                    107                    108
                      A                      A                      A
 Frequencies --   1491.1727              1499.6648              1507.3166
 Red. masses --      1.1159                 1.0473                 2.5608
 Frc consts  --      1.4619                 1.3877                 3.4279
 IR Inten    --     11.6965                 5.5810                51.7977

                    109                    110                    111
                      A                      A                      A
 Frequencies --   1511.5429              1522.9847              1592.2810
 Red. masses --      1.1261                 1.0902                 5.5911
 Frc consts  --      1.5159                 1.4899                 8.3520
 IR Inten    --     12.6309                10.7811                30.1727

                    112                    113                    114
                      A                      A                      A
 Frequencies --   1597.7066              1618.1732              1626.7458
 Red. masses --      7.4515                 5.7606                 6.3317
 Frc consts  --     11.2069                 8.8873                 9.8722
 IR Inten    --      3.1864                67.5285                26.6455

                    115                    116                    117
                      A                      A                      A
 Frequencies --   1636.6184              1655.3378              1758.8847
 Red. masses --      7.9526                 6.3003                11.8792
 Frc consts  --     12.5503                10.1715                21.6527
 IR Inten    --     50.7927               391.6049               661.9682

                    118                    119                    120
                      A                      A                      A
 Frequencies --   3003.9334              3006.4247              3025.5779
 Red. masses --      1.0726                 1.0601                 1.0717
 Frc consts  --      5.7027                 5.6454                 5.7804
 IR Inten    --      7.9420                26.7326                35.2580

                    121                    122                    123
                      A                      A                      A
 Frequencies --   3026.0783              3036.5242              3040.8845
 Red. masses --      1.0799                 1.0350                 1.0816
 Frc consts  --      5.8262                 5.6229                 5.8925
 IR Inten    --      3.8954                17.7104                37.6649

                    124                    125                    126
                      A                      A                      A
 Frequencies --   3055.8788              3074.2919              3090.0740
 Red. masses --      1.0580                 1.1028                 1.1069
 Frc consts  --      5.8213                 6.1407                 6.2271
 IR Inten    --     23.8477                27.2148                 0.7306

                    127                    128                    129
                      A                      A                      A
 Frequencies --   3103.2109              3116.1438              3137.1482
 Red. masses --      1.1004                 1.1063                 1.0933
 Frc consts  --      6.2433                 6.3291                 6.3396
 IR Inten    --     31.4560                38.1139                 2.9042

                    130                    131                    132
                      A                      A                      A
 Frequencies --   3143.6387              3147.5297              3150.9116
 Red. masses --      1.0887                 1.0892                 1.0899
 Frc consts  --      6.3392                 6.3579                 6.3753
 IR Inten    --     21.0781                 4.0306                16.3729

                    133                    134                    135
                      A                      A                      A
 Frequencies --   3180.4539              3183.5007              3189.5449
 Red. masses --      1.0890                 1.0912                 1.0959
 Frc consts  --      6.4899                 6.5157                 6.5685
 IR Inten    --      3.9737                 2.2081                21.5943

                    136                    137                    138
                      A                      A                      A
 Frequencies --   3201.1319              3202.4964              3241.2296
 Red. masses --      1.0943                 1.0887                 1.0937
 Frc consts  --      6.6071                 6.5788                 6.7699
 IR Inten    --      2.1389                 5.4747                 8.3421

 - Thermochemistry -
 -------------------
 Temperature   298.150 Kelvin.  Pressure   1.00000 Atm.
 Atom     1 has atomic number  6 and mass  12.00000

 Molecular mass:   380.12916 amu.
 Principal axes and moments of inertia in atomic units:
                           1         2         3
     Eigenvalues --  8284.03118********************
           X            0.99927   0.03821   0.00262
           Y           -0.03820   0.99926  -0.00356
           Z           -0.00275   0.00346   0.99999
 This molecule is an asymmetric top.
 Rotational symmetry number  1.
 Warning -- assumption of classical behavior for rotation
           may cause significant error
 Rotational temperatures (Kelvin)      0.01046     0.00474     0.00352
 Rotational constants (GHZ):           0.21786     0.09879     0.07342
 Zero-point vibrational energy    1014314.9 (Joules/Mol)
                                  242.42707 (Kcal/Mol)
 Warning -- explicit consideration of  37 degrees of freedom as
           vibrations may cause significant error
 Vibrational temperatures:     28.80    41.34    53.25    73.59    93.48
          (Kelvin)            100.15   129.47   130.06   149.83   172.58
                              186.90   208.56   214.56   267.02   326.35
                              336.42   363.88   371.47   400.83   417.88
                              440.61   462.24   510.12   520.01   534.92
                              562.05   585.34   656.61   661.51   685.59
                              708.85   721.96   765.39   788.33   805.29
                              830.11   872.13   896.11   930.70   952.99
                             1000.94  1021.93  1084.13  1097.18  1116.17
                             1125.87  1143.31  1158.49  1171.52  1173.31
                             1197.89  1211.31  1212.87  1267.80  1281.28
                             1293.56  1320.78  1366.12  1384.00  1391.49
                             1405.82  1422.30  1427.62  1435.55  1445.72
                             1496.85  1501.65  1540.25  1561.53  1586.40
                             1611.94  1626.59  1629.44  1634.31  1664.97
                             1694.81  1706.49  1715.30  1728.03  1761.37
                             1774.80  1781.41  1806.21  1812.98  1827.48
                             1846.79  1863.89  1867.85  1891.52  1915.18
                             1922.90  1950.85  1965.83  1970.09  1987.78
                             2002.29  2028.26  2060.62  2063.03  2080.69
                             2095.51  2113.18  2120.24  2128.57  2139.00
                             2145.46  2157.68  2168.69  2174.77  2191.23
                             2290.93  2298.74  2328.19  2340.52  2354.73
                             2381.66  2530.64  4321.98  4325.57  4353.13
                             4353.85  4368.88  4375.15  4396.72  4423.21
                             4445.92  4464.82  4483.43  4513.65  4522.99
                             4528.59  4533.45  4575.96  4580.34  4589.04
                             4605.71  4607.67  4663.40

 Zero-point correction=                           0.386332 (Hartree/Particle)
 Thermal correction to Energy=                    0.409822
 Thermal correction to Enthalpy=                  0.410766
 Thermal correction to Gibbs Free Energy=         0.331384
 Sum of electronic and zero-point Energies=          -1571.079884
 Sum of electronic and thermal Energies=             -1571.056395
 Sum of electronic and thermal Enthalpies=           -1571.055451
 Sum of electronic and thermal Free Energies=        -1571.134832

                     E (Thermal)             CV                S
                      KCal/Mol        Cal/Mol-Kelvin    Cal/Mol-Kelvin
 Total                  257.167             91.103            167.073
 Electronic               0.000              0.000              0.000
 Translational            0.889              2.981             43.698
 Rotational               0.889              2.981             36.562
 Vibrational            255.389             85.141             86.812
 Vibration     1          0.593              1.986              6.633
 Vibration     2          0.593              1.984              5.915
 Vibration     3          0.594              1.982              5.413
 Vibration     4          0.595              1.977              4.773
 Vibration     5          0.597              1.971              4.300
 Vibration     6          0.598              1.969              4.164
 Vibration     7          0.602              1.956              3.660
 Vibration     8          0.602              1.956              3.652
 Vibration     9          0.605              1.946              3.375
 Vibration    10          0.609              1.933              3.101
 Vibration    11          0.612              1.923              2.947
 Vibration    12          0.616              1.908              2.737
 Vibration    13          0.618              1.904              2.683
 Vibration    14          0.632              1.860              2.271
 Vibration    15          0.650              1.800              1.904
 Vibration    16          0.654              1.789              1.849
 Vibration    17          0.664              1.758              1.710
 Vibration    18          0.667              1.749              1.674
 Vibration    19          0.679              1.713              1.542
 Vibration    20          0.686              1.692              1.471
 Vibration    21          0.697              1.662              1.383
 Vibration    22          0.707              1.633              1.304
 Vibration    23          0.730              1.566              1.146
 Vibration    24          0.736              1.552              1.116
 Vibration    25          0.743              1.530              1.072
 Vibration    26          0.758              1.490              0.998
 Vibration    27          0.772              1.455              0.938
 Vibration    28          0.815              1.347              0.777
 Vibration    29          0.818              1.339              0.767
 Vibration    30          0.833              1.302              0.720
 Vibration    31          0.848              1.266              0.677
 Vibration    32          0.857              1.246              0.654
 Vibration    33          0.887              1.179              0.583
 Vibration    34          0.903              1.144              0.549
 Vibration    35          0.915              1.119              0.524
 Vibration    36          0.933              1.081              0.491
 Vibration    37          0.965              1.019              0.439

 Normal termination of Gaussian 09 at Tue Mar  8 15:27:17 2022.
