 Gaussian 09, Revision D.01,
 Gaussian 09:  ES64L-G09RevD.01 24-Apr-2013

 ----------------------------------------------------------------------
 # opt freq b3lyp/6-311+g(d,p) geom=connectivity pop=(hirshfeld,chelpg,
 mbs,npa)
 ----------------------------------------------------------------------

 -------------------
 Title Card Required
 -------------------
 Symbolic Z-matrix:
 Charge =  0 Multiplicity = 1

 SCF Done:  E(RB3LYP) =  -1221.40446910     A.U. after   15 cycles
 SCF Done:  E(RB3LYP) =  -1221.41945241     A.U. after   13 cycles
 SCF Done:  E(RB3LYP) =  -1221.42203780     A.U. after   13 cycles
 SCF Done:  E(RB3LYP) =  -1221.42281793     A.U. after   12 cycles
 SCF Done:  E(RB3LYP) =  -1221.42283320     A.U. after   11 cycles
 Optimization completed.
    -- Stationary point found.
 Normal termination of Gaussian 09 at Mon Jan  9 17:12:56 2023.

 ----------------------------------------------------------------------
 #N Geom=AllCheck Guess=TCheck SCRF=Check GenChk RB3LYP/6-311+G(d,p) Fr
 eq
 ----------------------------------------------------------------------

 Structure from the checkpoint file:  "aryltrifluorborates2_Carreira.chk"
 -------------------
 Title Card Required
 -------------------
 Charge =  0 Multiplicity = 1

                         Standard orientation:
 ---------------------------------------------------------------------
 Center     Atomic      Atomic             Coordinates (Angstroms)
 Number     Number       Type             X           Y           Z
 ---------------------------------------------------------------------
      1          6           0       -1.188686   -0.539713    0.000001
      2          6           0       -0.167751    0.397401    0.000006
      3          6           0       -0.411334    1.765878    0.000005
      4          6           0       -1.733184    2.206788   -0.000004
      5          6           0       -2.782329    1.296301   -0.000009
      6          6           0       -2.512038   -0.079107    0.000010
      7          1           0       -0.983137   -1.600255    0.000004
      8          1           0        0.403217    2.476035    0.000003
      9          1           0       -1.938602    3.270191   -0.000008
     10          1           0       -3.809601    1.638434   -0.000005
     11         16           0        1.570153   -0.197470    0.000001
     12          9           0        1.258114   -1.316519   -1.159808
     13          9           0        1.258089   -1.316584    1.159733
     14          9           0        3.113046   -0.721687    0.000002
     15          9           0        2.005229    0.880651    1.159701
     16          9           0        2.005256    0.880714   -1.159636
     17          6           0       -3.589072   -1.022251    0.000003
     18          7           0       -4.463651   -1.776547   -0.000005
 ---------------------------------------------------------------------

 SCF Done:  E(RB3LYP) =  -1221.42283320     A.U. after    2 cycles

 The electronic state is 1-A.
 Alpha  occ. eigenvalues --  -89.23966 -24.73505 -24.73504 -24.73502 -24.73489
 Alpha  occ. eigenvalues --  -24.73488 -14.34246 -10.27512 -10.26598 -10.25021
 Alpha  occ. eigenvalues --  -10.24560 -10.24259 -10.23809 -10.23664  -8.28489
 Alpha  occ. eigenvalues --   -6.25000  -6.24988  -6.24458  -1.35940  -1.26608
 Alpha  occ. eigenvalues --   -1.26536  -1.24054  -1.22635  -0.94837  -0.92967
 Alpha  occ. eigenvalues --   -0.86797  -0.82843  -0.80444  -0.70433  -0.69029
 Alpha  occ. eigenvalues --   -0.65211  -0.65188  -0.64295  -0.57723  -0.55565
 Alpha  occ. eigenvalues --   -0.54396  -0.53708  -0.53067  -0.51840  -0.51291
 Alpha  occ. eigenvalues --   -0.49556  -0.49149  -0.46892  -0.46834  -0.46830
 Alpha  occ. eigenvalues --   -0.45374  -0.44751  -0.43813  -0.43693  -0.43376
 Alpha  occ. eigenvalues --   -0.43083  -0.41222  -0.39118  -0.38737  -0.36725
 Alpha  occ. eigenvalues --   -0.32334  -0.30939
 Alpha virt. eigenvalues --   -0.11294  -0.09733  -0.08133  -0.01652  -0.00095
 Alpha virt. eigenvalues --    0.00532   0.01309   0.01330   0.02115   0.02802
 Alpha virt. eigenvalues --    0.02925   0.04069   0.04301   0.04412   0.06071

 Mulliken charges:
               1
     1  C   -0.236748
     2  C   -1.085263
     3  C    0.306085
     4  C   -0.193498
     5  C   -0.503151
     6  C    1.705441
     7  H    0.179030
     8  H    0.171966
     9  H    0.153169
    10  H    0.156762
    11  S    0.679710
    12  F    0.013386
    13  F    0.013385
    14  F    0.004529
    15  F   -0.000945
    16  F   -0.000950
    17  C   -1.200395
    18  N   -0.162513
 Sum of Mulliken charges =   0.00000

 Dipole moment (field-independent basis, Debye):
    X=             -0.9105    Y=              4.3302    Z=              0.0000  Tot=              4.4249
 Quadrupole moment (field-independent basis, Debye-Ang):
   XX=           -103.4295   YY=            -81.7238   ZZ=            -89.0739
   XY=            -13.2695   XZ=              0.0000   YZ=             -0.0001

  Exact polarizability: 145.710  12.877 118.609   0.000   0.000  67.091
 Approx polarizability: 213.108  29.093 200.731   0.000   0.000 103.575

 ESP charges:
               1
     1  C   -0.151577
     2  C    0.090079
     3  C   -0.100757
     4  C   -0.041297
     5  C   -0.117824
     6  C    0.061845
     7  H    0.171286
     8  H    0.150308
     9  H    0.106007
    10  H    0.130037
    11  S    0.775731
    12  F   -0.211570
    13  F   -0.211586
    14  F   -0.130092
    15  F   -0.214556
    16  F   -0.214593
    17  C    0.351005
    18  N   -0.442446
 Sum of ESP charges =   0.00000

 Summary of Natural Population Analysis:

                                       Natural Population
                Natural  -----------------------------------------------
    Atom  No    Charge         Core      Valence    Rydberg      Total
 -----------------------------------------------------------------------
      C    1   -0.14693      1.99892     4.13026    0.01775     6.14693
      C    2   -0.17789      1.99868     4.15165    0.02756     6.17789
      C    3   -0.17244      1.99899     4.15395    0.01950     6.17244
      C    4   -0.18466      1.99915     4.16851    0.01700     6.18466
      C    5   -0.12992      1.99910     4.11529    0.01553     6.12992
      C    6   -0.16232      1.99887     4.14597    0.01748     6.16232
      H    7    0.25594      0.00000     0.74246    0.00161     0.74406
      H    8    0.24623      0.00000     0.75213    0.00165     0.75377
      H    9    0.22634      0.00000     0.77237    0.00129     0.77366
      H   10    0.23035      0.00000     0.76838    0.00127     0.76965
      S   11    2.28990      9.99844     3.53766    0.17400    13.71010
      F   12   -0.46064      1.99996     7.45481    0.00587     9.46064
      F   13   -0.46064      1.99996     7.45481    0.00587     9.46064
      F   14   -0.42629      1.99996     7.41929    0.00704     9.42629
      F   15   -0.46178      1.99996     7.45592    0.00590     9.46178
      F   16   -0.46178      1.99996     7.45592    0.00590     9.46178
      C   17    0.27966      1.99923     3.68734    0.03377     5.72034
      N   18   -0.28313      1.99959     5.26350    0.02004     7.28313
 =======================================================================
   * Total *    0.00000     35.99077    77.63021    0.37902   114.00000

                      1                      2                      3
                      A                      A                      A
 Frequencies --     29.3478               101.5883               106.6218
 Red. masses --     10.5130                 7.0264                13.5794
 Frc consts  --      0.0053                 0.0427                 0.0910
 IR Inten    --      1.7926                 0.3230                 4.3545

                      4                      5                      6
                      A                      A                      A
 Frequencies --    151.8864               176.4026               258.0901
 Red. masses --      6.2028                10.8079                 6.8250
 Frc consts  --      0.0843                 0.1982                 0.2679
 IR Inten    --      1.9912                 0.8539                 0.0751

                      7                      8                      9
                      A                      A                      A
 Frequencies --    267.4334               295.0454               313.8207
 Red. masses --     10.2534                 7.7679                18.8148
 Frc consts  --      0.4321                 0.3984                 1.0917
 IR Inten    --     10.4703                 1.3160                 0.0001

                     10                     11                     12
                      A                      A                      A
 Frequencies --    361.5455               390.1353               392.8181
 Red. masses --      9.3711                 4.3036                13.0796
 Frc consts  --      0.7217                 0.3859                 1.1891
 IR Inten    --      0.0886                 0.4600                 0.1084

                     13                     14                     15
                      A                      A                      A
 Frequencies --    425.0420               474.0319               485.3310
 Red. masses --     18.9772                 8.4829                 6.0557
 Frc consts  --      2.0200                 1.1231                 0.8404
 IR Inten    --      0.0529                 0.5888                 0.6081

                     16                     17                     18
                      A                      A                      A
 Frequencies --    508.2813               514.6802               541.7664
 Red. masses --     18.2713                10.3663                18.8552
 Frc consts  --      2.7812                 1.6179                 3.2607
 IR Inten    --      5.5813                14.8479                 0.0000

                     19                     20                     21
                      A                      A                      A
 Frequencies --    545.5641               580.4654               595.4067
 Red. masses --     18.4590                 7.5619                19.3877
 Frc consts  --      3.2371                 1.5012                 4.0495
 IR Inten    --     45.4741                 0.3608                16.9911

                     22                     23                     24
                      A                      A                      A
 Frequencies --    619.5222               666.6241               689.5954
 Red. masses --      7.1855                 8.1001                 2.2709
 Frc consts  --      1.6249                 2.1208                 0.6363
 IR Inten    --      0.2829                45.3349                12.2843

                     25                     26                     27
                      A                      A                      A
 Frequencies --    756.9887               791.2774               795.2496
 Red. masses --     13.4028                19.5868                22.9362
 Frc consts  --      4.5251                 7.2255                 8.5463
 IR Inten    --    340.2491               405.6162               313.6243

                     28                     29                     30
                      A                      A                      A
 Frequencies --    806.3666               855.6729               913.6309
 Red. masses --      1.4494                 9.1392                 1.4238
 Frc consts  --      0.5553                 3.9425                 0.7002
 IR Inten    --     13.9964               101.1794                10.0719

                     31                     32                     33
                      A                      A                      A
 Frequencies --    947.0374              1008.3183              1013.1247
 Red. masses --      1.3806                 1.3375                 6.1491
 Frc consts  --      0.7296                 0.8012                 3.7187
 IR Inten    --      0.7107                 0.0548                 0.6875

                     34                     35                     36
                      A                      A                      A
 Frequencies --   1099.9831              1121.6399              1202.6306
 Red. masses --      2.2781                 1.6198                 1.1310
 Frc consts  --      1.6240                 1.2007                 0.9638
 IR Inten    --      8.8901                 6.9817                 1.9941

                     37                     38                     39
                      A                      A                      A
 Frequencies --   1220.1100              1311.5325              1343.7789
 Red. masses --      3.2895                 2.5400                 1.9115
 Frc consts  --      2.8852                 2.5742                 2.0337
 IR Inten    --      0.2974                 0.2424                 2.6795

                     40                     41                     42
                      A                      A                      A
 Frequencies --   1453.3130              1507.8038              1601.5612
 Red. masses --      2.9230                 2.2724                 5.4940
 Frc consts  --      3.6374                 3.0439                 8.3028
 IR Inten    --     13.2937                16.8079                 4.9449

                     43                     44                     45
                      A                      A                      A
 Frequencies --   1640.0676              2340.2078              3190.5444
 Red. masses --      5.9508                12.6773                 1.0888
 Frc consts  --      9.4308                40.9058                 6.5301
 IR Inten    --      0.0954                17.8255                 1.5128

                     46                     47                     48
                      A                      A                      A
 Frequencies --   3205.8697              3227.3341              3231.7260
 Red. masses --      1.0952                 1.0940                 1.0930
 Frc consts  --      6.6316                 6.7136                 6.7257
 IR Inten    --      0.7406                 2.8982                 5.8491

 - Thermochemistry -
 -------------------
 Temperature   298.150 Kelvin.  Pressure   1.00000 Atm.
 Atom     1 has atomic number  6 and mass  12.00000

 Molecular mass:   228.99846 amu.
 Principal axes and moments of inertia in atomic units:
                           1         2         3
     Eigenvalues --  1459.952354478.761475208.73404
           X            0.99995  -0.00999   0.00000
           Y            0.00999   0.99995   0.00000
           Z            0.00000   0.00000   1.00000
 This molecule is an asymmetric top.
 Rotational symmetry number  1.
 Warning -- assumption of classical behavior for rotation
           may cause significant error
 Rotational temperatures (Kelvin)      0.05933     0.01934     0.01663
 Rotational constants (GHZ):           1.23616     0.40296     0.34648
 Zero-point vibrational energy     275600.6 (Joules/Mol)
                                   65.87011 (Kcal/Mol)
 Warning -- explicit consideration of  22 degrees of freedom as
           vibrations may cause significant error
 Vibrational temperatures:     42.22   146.16   153.40   218.53   253.80
          (Kelvin)            371.33   384.78   424.50   451.52   520.18
                              561.32   565.18   611.54   682.03   698.28
                              731.30   740.51   779.48   784.94   835.16
                              856.66   891.35   959.12   992.17  1089.14
                             1138.47  1144.19  1160.18  1231.12  1314.51
                             1362.57  1450.74  1457.66  1582.63  1613.79
                             1730.31  1755.46  1887.00  1933.40  2090.99
                             2169.39  2304.29  2359.69  3367.03  4590.48
                             4612.53  4643.41  4649.73

 Zero-point correction=                           0.104971 (Hartree/Particle)
 Thermal correction to Energy=                    0.117113
 Thermal correction to Enthalpy=                  0.118058
 Thermal correction to Gibbs Free Energy=         0.066098
 Sum of electronic and zero-point Energies=          -1221.317862
 Sum of electronic and thermal Energies=             -1221.305720
 Sum of electronic and thermal Enthalpies=           -1221.304776
 Sum of electronic and thermal Free Energies=        -1221.356736

                     E (Thermal)             CV                S
                      KCal/Mol        Cal/Mol-Kelvin    Cal/Mol-Kelvin
 Total                   73.490             46.935            109.359
 Electronic               0.000              0.000              0.000
 Translational            0.889              2.981             42.188
 Rotational               0.889              2.981             31.899
 Vibrational             71.712             40.974             35.272
 Vibration     1          0.593              1.984              5.873
 Vibration     2          0.604              1.948              3.424
 Vibration     3          0.605              1.944              3.330
 Vibration     4          0.619              1.901              2.648
 Vibration     5          0.628              1.871              2.366
 Vibration     6          0.667              1.749              1.675
 Vibration     7          0.673              1.733              1.613
 Vibration     8          0.689              1.683              1.445
 Vibration     9          0.702              1.647              1.342
 Vibration    10          0.736              1.551              1.115
 Vibration    11          0.758              1.491              1.000
 Vibration    12          0.760              1.486              0.989
 Vibration    13          0.787              1.416              0.875
 Vibration    14          0.831              1.308              0.726
 Vibration    15          0.841              1.283              0.696
 Vibration    16          0.863              1.232              0.638
 Vibration    17          0.870              1.217              0.622
 Vibration    18          0.897              1.158              0.561
 Vibration    19          0.901              1.149              0.553
 Vibration    20          0.937              1.074              0.485
 Vibration    21          0.953              1.042              0.458
 Vibration    22          0.979              0.991              0.417

 Optimization completed.
    -- Stationary point found.
 Normal termination of Gaussian 09 at Mon Jan  9 17:16:40 2023.
