 Gaussian 09, Revision D.01,
 Gaussian 09:  ES64L-G09RevD.01 24-Apr-2013

 ---------------------------------------------------------------------
 # b3lyp/6-311+g(d,p) geom=connectivity pop=(hirshfeld,chelpg,mbs,npa)
 ---------------------------------------------------------------------

 --------
 Chart5_1
 --------
 Symbolic Z-matrix:
 Charge =  0 Multiplicity = 1

                         Standard orientation:
 ---------------------------------------------------------------------
 Center     Atomic      Atomic             Coordinates (Angstroms)
 Number     Number       Type             X           Y           Z
 ---------------------------------------------------------------------
      1          6           0       -0.004273    0.913135    0.000000
      2          6           0       -0.007555    0.194230    1.200484
      3          6           0       -0.007555   -1.199548    1.203415
      4          6           0       -0.006636   -1.902681    0.000000
      5          6           0       -0.007555   -1.199548   -1.203415
      6          6           0       -0.007555    0.194230   -1.200484
      7          1           0       -0.012602    0.732057    2.143638
      8          1           0       -0.012150   -1.736113    2.146085
      9          1           0       -0.009469   -2.986956    0.000000
     10          1           0       -0.012150   -1.736113   -2.146085
     11          1           0       -0.012602    0.732057   -2.143638
     12          6           0        0.029022    2.423022    0.000000
     13          1           0       -0.464553    2.832953    0.884499
     14          1           0        1.060711    2.792130    0.000000
     15          1           0       -0.464553    2.832953   -0.884499
 ---------------------------------------------------------------------

 SCF Done:  E(RB3LYP) =  -271.638813713     A.U. after   12 cycles

 The electronic state is 1-A'.
 Alpha  occ. eigenvalues --  -10.18521 -10.17550 -10.17544 -10.17325 -10.17289
 Alpha  occ. eigenvalues --  -10.17287 -10.16981  -0.86027  -0.77517  -0.74783
 Alpha  occ. eigenvalues --   -0.68890  -0.60838  -0.58756  -0.51513  -0.46445
 Alpha  occ. eigenvalues --   -0.45742  -0.42417  -0.42342  -0.41248  -0.38945
 Alpha  occ. eigenvalues --   -0.35947  -0.34644  -0.34337  -0.25669  -0.24775
 Alpha virt. eigenvalues --   -0.01591  -0.01355   0.00352   0.01726   0.02252
 Alpha virt. eigenvalues --    0.04034   0.04647   0.04750   0.06043   0.06729
 Alpha virt. eigenvalues --    0.07743   0.07870   0.08677   0.09781   0.11652

 Mulliken charges:
               1
     1  C    0.889223
     2  C   -0.482077
     3  C   -0.081237
     4  C   -0.164441
     5  C   -0.081237
     6  C   -0.482077
     7  H    0.116374
     8  H    0.123891
     9  H    0.123408
    10  H    0.123891
    11  H    0.116374
    12  C   -0.646996
    13  H    0.139523
    14  H    0.165859
    15  H    0.139523
 Sum of Mulliken charges =   0.00000

 Dipole moment (field-independent basis, Debye):
    X=              0.0386    Y=              0.4038    Z=              0.0000  Tot=              0.4056
 Quadrupole moment (field-independent basis, Debye-Ang):
   XX=            -46.5806   YY=            -38.6956   ZZ=            -39.1065
   XY=              0.0960   XZ=              0.0000   YZ=              0.0000

 ESP charges:
               1
     1  C    0.194867
     2  C   -0.199016
     3  C   -0.044571
     4  C   -0.132793
     5  C   -0.044571
     6  C   -0.199016
     7  H    0.106109
     8  H    0.076321
     9  H    0.090861
    10  H    0.076321
    11  H    0.106109
    12  C   -0.204866
    13  H    0.057583
    14  H    0.059080
    15  H    0.057583
 Sum of ESP charges =   0.00000

 Summary of Natural Population Analysis:

                                       Natural Population
                Natural  -----------------------------------------------
    Atom  No    Charge         Core      Valence    Rydberg      Total
 -----------------------------------------------------------------------
      C    1   -0.03289      1.99905     4.01767    0.01617     6.03289
      C    2   -0.20702      1.99905     4.19095    0.01702     6.20702
      C    3   -0.19716      1.99916     4.17952    0.01848     6.19716
      C    4   -0.21479      1.99916     4.19732    0.01832     6.21479
      C    5   -0.19716      1.99916     4.17952    0.01848     6.19716
      C    6   -0.20702      1.99905     4.19095    0.01702     6.20702
      H    7    0.20195      0.00000     0.79639    0.00165     0.79805
      H    8    0.20446      0.00000     0.79398    0.00156     0.79554
      H    9    0.20517      0.00000     0.79341    0.00141     0.79483
      H   10    0.20446      0.00000     0.79398    0.00156     0.79554
      H   11    0.20195      0.00000     0.79639    0.00165     0.79805
      C   12   -0.58973      1.99931     4.58040    0.01003     6.58973
      H   13    0.20737      0.00000     0.79129    0.00135     0.79263
      H   14    0.21305      0.00000     0.78553    0.00142     0.78695
      H   15    0.20737      0.00000     0.79129    0.00135     0.79263
 =======================================================================
   * Total *    0.00000     13.99393    35.87860    0.12747    50.00000

 Normal termination of Gaussian 09 at Fri Jul 23 17:25:20 2021.
