 Gaussian 09, Revision D.01,
 Gaussian 09:  ES64L-G09RevD.01 24-Apr-2013

 ----------------------------------------------------------------------
 # opt freq=noraman b3lyp/6-311+g(d,p) pop=(npa,hirshfeld,chelpg,mbs) g
 eom=connectivity
 ----------------------------------------------------------------------

 -------------------
 Title Card Required
 -------------------
 Symbolic Z-matrix:
 Charge =  0 Multiplicity = 1

 SCF Done:  E(RB3LYP) =  -1415.75422033     A.U. after   17 cycles
 SCF Done:  E(RB3LYP) =  -1415.80243495     A.U. after   15 cycles
 SCF Done:  E(RB3LYP) =  -1415.80335380     A.U. after   14 cycles
 SCF Done:  E(RB3LYP) =  -1415.83490449     A.U. after   15 cycles
 SCF Done:  E(RB3LYP) =  -1415.84801486     A.U. after   15 cycles
 SCF Done:  E(RB3LYP) =  -1415.85458196     A.U. after   17 cycles
 SCF Done:  E(RB3LYP) =  -1415.86116409     A.U. after   14 cycles
 SCF Done:  E(RB3LYP) =  -1415.86433042     A.U. after   14 cycles
 SCF Done:  E(RB3LYP) =  -1415.86605186     A.U. after   16 cycles
 SCF Done:  E(RB3LYP) =  -1415.86656238     A.U. after   15 cycles
 SCF Done:  E(RB3LYP) =  -1415.87912232     A.U. after    9 cycles
 SCF Done:  E(RB3LYP) =  -1415.87912233     A.U. after    8 cycles
 SCF Done:  E(RB3LYP) =  -1415.87912235     A.U. after    9 cycles
 SCF Done:  E(RB3LYP) =  -1415.87912236     A.U. after    8 cycles
 SCF Done:  E(RB3LYP) =  -1415.87912238     A.U. after    9 cycles
 SCF Done:  E(RB3LYP) =  -1415.87912241     A.U. after    9 cycles
 SCF Done:  E(RB3LYP) =  -1415.87912244     A.U. after    9 cycles
 SCF Done:  E(RB3LYP) =  -1415.87912254     A.U. after    9 cycles
 SCF Done:  E(RB3LYP) =  -1415.87912261     A.U. after   10 cycles
 Optimization completed.
    -- Stationary point found.
 Normal termination of Gaussian 09 at Tue Apr 23 16:22:28 2024.

 ----------------------------------------------------------------------
 #N Geom=AllCheck Guess=TCheck SCRF=Check GenChk RB3LYP/6-311+G(d,p) Fr
 eq
 ----------------------------------------------------------------------

 Structure from the checkpoint file:  "82.chk"
 -------------------
 Title Card Required
 -------------------
 Charge =  0 Multiplicity = 1

                         Standard orientation:
 ---------------------------------------------------------------------
 Center     Atomic      Atomic             Coordinates (Angstroms)
 Number     Number       Type             X           Y           Z
 ---------------------------------------------------------------------
      1          7           0        2.138796    0.616644   -0.016460
      2          1           0        2.375264    1.564421   -0.268121
      3          6           0        3.214981   -0.234665    0.094373
      4          8           0        3.162470   -1.410501    0.380904
      5          8           0        4.335883    0.474865   -0.171219
      6          6           0        5.675301   -0.155614   -0.147947
      7          6           0        5.982680   -0.679224    1.256915
      8          1           0        5.862093    0.117861    1.995078
      9          1           0        5.331903   -1.510472    1.523547
     10          1           0        7.020404   -1.021595    1.295083
     11          6           0        5.753630   -1.252907   -1.211864
     12          1           0        5.476679   -0.854396   -2.191258
     13          1           0        6.781097   -1.621554   -1.274797
     14          1           0        5.098268   -2.088672   -0.971428
     15          6           0        6.592962    1.013840   -0.504436
     16          1           0        7.632597    0.678499   -0.524431
     17          1           0        6.340148    1.416788   -1.487645
     18          1           0        6.501617    1.814457    0.232931
     19          6           0        0.773478    0.326389    0.155701
     20          6           0        0.284716   -0.944385    0.484114
     21          6           0       -0.127626    1.385152   -0.015833
     22          6           0       -1.085043   -1.132538    0.627927
     23          1           0        0.970384   -1.765951    0.619334
     24          6           0       -1.491596    1.175775    0.133493
     25          1           0        0.228469    2.377163   -0.267767
     26          6           0       -1.983212   -0.087976    0.456021
     27          1           0       -1.474708   -2.111996    0.877589
     28         17           0       -2.592313    2.520603   -0.082156
     29          8           0       -3.335497   -0.288317    0.681500
     30          6           0       -4.109115   -0.652260   -0.410811
     31          8           0       -3.637281   -0.863185   -1.504622
     32          7           0       -5.421156   -0.740634   -0.069820
     33          6           0       -5.954923   -0.479216    1.260955
     34          1           0       -6.754667    0.266099    1.197979
     35          1           0       -6.372303   -1.396503    1.692077
     36          1           0       -5.174789   -0.103868    1.914777
     37          6           0       -6.380010   -1.157921   -1.083475
     38          1           0       -6.875594   -2.086762   -0.780126
     39          1           0       -7.144278   -0.385925   -1.222209
     40          1           0       -5.858681   -1.319509   -2.023287
 ---------------------------------------------------------------------

 SCF Done:  E(RB3LYP) =  -1415.87912261     A.U. after    1 cycles

 The electronic state is 1-A.
 Alpha  occ. eigenvalues -- -101.55784 -19.17332 -19.16654 -19.10827 -19.09577
 Alpha  occ. eigenvalues --  -14.36556 -14.35374 -10.33476 -10.32247 -10.25433
 Alpha  occ. eigenvalues --  -10.24560 -10.24502 -10.23970 -10.20911 -10.20503
 Alpha  occ. eigenvalues --  -10.19476 -10.18878 -10.18110 -10.17168 -10.16625
 Alpha  occ. eigenvalues --  -10.16604  -9.47243  -7.23714  -7.22720  -7.22684
 Alpha  occ. eigenvalues --   -1.11806  -1.11608  -1.02932  -1.02749  -0.96223
 Alpha  occ. eigenvalues --   -0.95186  -0.89496  -0.84509  -0.82071  -0.77125
 Alpha  occ. eigenvalues --   -0.74945  -0.73189  -0.71514  -0.70493  -0.70322
 Alpha  occ. eigenvalues --   -0.66748  -0.64231  -0.61725  -0.58752  -0.57479
 Alpha  occ. eigenvalues --   -0.54311  -0.54096  -0.52068  -0.50230  -0.49645
 Alpha  occ. eigenvalues --   -0.48753  -0.48339  -0.48015  -0.46800  -0.45589
 Alpha  occ. eigenvalues --   -0.45357  -0.45294  -0.44058  -0.43506  -0.42630
 Alpha  occ. eigenvalues --   -0.42476  -0.41588  -0.41220  -0.41161  -0.40701
 Alpha  occ. eigenvalues --   -0.40162  -0.39549  -0.38463  -0.37925  -0.37863
 Alpha  occ. eigenvalues --   -0.37004  -0.36610  -0.35262  -0.34909  -0.32151
 Alpha  occ. eigenvalues --   -0.31836  -0.31332  -0.31124  -0.28777  -0.28575
 Alpha  occ. eigenvalues --   -0.26008  -0.25462  -0.23145
 Alpha virt. eigenvalues --   -0.02933  -0.02207  -0.00721  -0.00102   0.00455
 Alpha virt. eigenvalues --    0.01026   0.02123   0.02422   0.02705   0.02850
 Alpha virt. eigenvalues --    0.03175   0.03264   0.04033   0.04366   0.04551

 Mulliken charges:
               1
     1  N   -0.339130
     2  H    0.302926
     3  C    0.291504
     4  O   -0.276356
     5  O    0.047419
     6  C   -0.279836
     7  C   -0.344851
     8  H    0.149624
     9  H    0.182425
    10  H    0.140573
    11  C   -0.345151
    12  H    0.150747
    13  H    0.140651
    14  H    0.183131
    15  C   -0.365261
    16  H    0.146488
    17  H    0.151694
    18  H    0.150869
    19  C   -0.129945
    20  C    0.811403
    21  C   -0.691764
    22  C   -0.335891
    23  H    0.168368
    24  C    1.439744
    25  H    0.119888
    26  C   -1.761064
    27  H    0.128490
    28  Cl   0.340433
    29  O    0.004370
    30  C   -0.194574
    31  O   -0.246480
    32  N   -0.143662
    33  C   -0.273817
    34  H    0.140224
    35  H    0.140668
    36  H    0.186157
    37  C   -0.247661
    38  H    0.137357
    39  H    0.139498
    40  H    0.180791
 Sum of Mulliken charges =   0.00000

 Dipole moment (field-independent basis, Debye):
    X=              0.6867    Y=              0.8611    Z=              1.3452  Tot=              1.7385
 Quadrupole moment (field-independent basis, Debye-Ang):
   XX=            -90.7422   YY=           -131.7623   ZZ=           -137.0702
   XY=              9.0162   XZ=             -8.5369   YZ=             -2.4886

  Exact polarizability: 312.047  -5.557 191.197  -5.503  -6.913 153.162
 Approx polarizability: 366.124 -12.911 310.247 -13.813 -18.575 231.823

 ESP charges:
               1
     1  N   -0.756758
     2  H    0.391135
     3  C    1.001177
     4  O   -0.600016
     5  O   -0.672445
     6  C    0.837453
     7  C   -0.372261
     8  H    0.071664
     9  H    0.091878
    10  H    0.067710
    11  C   -0.363003
    12  H    0.072343
    13  H    0.062438
    14  H    0.094739
    15  C   -0.362136
    16  H    0.065817
    17  H    0.085684
    18  H    0.084960
    19  C    0.430121
    20  C   -0.264126
    21  C   -0.298106
    22  C   -0.166593
    23  H    0.176178
    24  C    0.067471
    25  H    0.147359
    26  C    0.307931
    27  H    0.142000
    28  Cl  -0.111009
    29  O   -0.448963
    30  C    0.783500
    31  O   -0.598761
    32  N   -0.180192
    33  C   -0.088854
    34  H    0.071535
    35  H    0.063310
    36  H    0.064285
    37  C   -0.151156
    38  H    0.075352
    39  H    0.077884
    40  H    0.100455
 Sum of ESP charges =   0.00000

 Summary of Natural Population Analysis:

                                       Natural Population
                Natural  -----------------------------------------------
    Atom  No    Charge         Core      Valence    Rydberg      Total
 -----------------------------------------------------------------------
      N    1   -0.61557      1.99926     5.60171    0.01460     7.61557
      H    2    0.40336      0.00000     0.59315    0.00348     0.59664
      C    3    0.93340      1.99943     3.01764    0.04953     5.06660
      O    4   -0.64722      1.99973     6.63681    0.01068     8.64722
      O    5   -0.60619      1.99970     6.58804    0.01845     8.60619
      C    6    0.27568      1.99911     3.70426    0.02095     5.72432
      C    7   -0.60608      1.99923     4.59541    0.01143     6.60608
      H    8    0.20653      0.00000     0.79213    0.00134     0.79347
      H    9    0.23091      0.00000     0.76766    0.00143     0.76909
      H   10    0.20705      0.00000     0.79180    0.00115     0.79295
      C   11   -0.60626      1.99923     4.59560    0.01143     6.60626
      H   12    0.20708      0.00000     0.79159    0.00133     0.79292
      H   13    0.20717      0.00000     0.79169    0.00114     0.79283
      H   14    0.23089      0.00000     0.76768    0.00142     0.76911
      C   15   -0.58195      1.99924     4.57055    0.01215     6.58195
      H   16    0.20646      0.00000     0.79247    0.00107     0.79354
      H   17    0.20946      0.00000     0.78916    0.00138     0.79054
      H   18    0.20911      0.00000     0.78951    0.00138     0.79089
      C   19    0.17291      1.99897     3.80871    0.01940     5.82709
      C   20   -0.22827      1.99908     4.21372    0.01547     6.22827
      C   21   -0.25004      1.99892     4.23390    0.01722     6.25004
      C   22   -0.18598      1.99904     4.17091    0.01602     6.18598
      H   23    0.25083      0.00000     0.74726    0.00191     0.74917
      C   24   -0.04490      1.99846     4.02387    0.02258     6.04490
      H   25    0.21870      0.00000     0.77924    0.00207     0.78130
      C   26    0.26043      1.99849     3.71551    0.02558     5.73957
      H   27    0.22257      0.00000     0.77587    0.00156     0.77743
     Cl   28    0.01793      9.99961     6.96341    0.01905    16.98207
      O   29   -0.57947      1.99968     6.55961    0.02018     8.57947
      C   30    0.93055      1.99926     3.02232    0.04787     5.06945
      O   31   -0.63712      1.99973     6.62702    0.01037     8.63712
      N   32   -0.51221      1.99928     5.49747    0.01546     7.51221
      C   33   -0.35476      1.99934     4.34305    0.01237     6.35476
      H   34    0.18825      0.00000     0.80992    0.00184     0.81175
      H   35    0.18537      0.00000     0.81271    0.00192     0.81463
      H   36    0.22938      0.00000     0.76937    0.00125     0.77062
      C   37   -0.35520      1.99935     4.34351    0.01235     6.35520
      H   38    0.18558      0.00000     0.81249    0.00193     0.81442
      H   39    0.18723      0.00000     0.81090    0.00187     0.81277
      H   40    0.23440      0.00000     0.76400    0.00160     0.76560
 =======================================================================
   * Total *    0.00000     49.98414   115.58163    0.43423   166.00000

                      1                      2                      3
                      A                      A                      A
 Frequencies --     14.2102                22.2440                28.3670
 Red. masses --      4.2794                 4.8205                 3.9344
 Frc consts  --      0.0005                 0.0014                 0.0019
 IR Inten    --      0.1845                 0.4530                 1.2790

                      4                      5                      6
                      A                      A                      A
 Frequencies --     31.0192                33.0422                55.4131
 Red. masses --      2.5314                 1.5970                 5.2476
 Frc consts  --      0.0014                 0.0010                 0.0095
 IR Inten    --      1.2478                 2.2571                 0.6428

                      7                      8                      9
                      A                      A                      A
 Frequencies --     77.4229                82.9585               100.7921
 Red. masses --      5.5287                 5.4702                 1.9783
 Frc consts  --      0.0195                 0.0222                 0.0118
 IR Inten    --      0.6382                 5.8539                 0.6105

                     10                     11                     12
                      A                      A                      A
 Frequencies --    114.8384               129.7584               153.6258
 Red. masses --      4.0190                 1.5388                 5.4045
 Frc consts  --      0.0312                 0.0153                 0.0752
 IR Inten    --      0.1385                 0.3306                 1.1367

                     13                     14                     15
                      A                      A                      A
 Frequencies --    174.7838               177.3194               203.0476
 Red. masses --      5.4489                 5.1250                 1.5570
 Frc consts  --      0.0981                 0.0949                 0.0378
 IR Inten    --      4.5559                 1.0330                 0.1199

                     16                     17                     18
                      A                      A                      A
 Frequencies --    208.8557               221.1118               242.7454
 Red. masses --      2.2881                 2.3422                 4.1946
 Frc consts  --      0.0588                 0.0675                 0.1456
 IR Inten    --      0.0856                 3.4597                 6.7259

                     19                     20                     21
                      A                      A                      A
 Frequencies --    249.7349               270.4252               285.1421
 Red. masses --      1.0983                 1.0623                 5.3796
 Frc consts  --      0.0404                 0.0458                 0.2577
 IR Inten    --      0.2642                 0.0680                 1.9367

                     22                     23                     24
                      A                      A                      A
 Frequencies --    306.5347               330.9374               347.5342
 Red. masses --      5.2238                 4.0653                 2.5555
 Frc consts  --      0.2892                 0.2623                 0.1819
 IR Inten    --      0.4159                13.5864                 1.7396

                     25                     26                     27
                      A                      A                      A
 Frequencies --    355.7425               392.2201               418.0008
 Red. masses --      3.8077                 4.6641                 3.6114
 Frc consts  --      0.2839                 0.4227                 0.3718
 IR Inten    --      4.4175                10.6495                 5.7286

                     28                     29                     30
                      A                      A                      A
 Frequencies --    431.1551               446.1859               454.0912
 Red. masses --      3.2903                 3.1942                 3.1420
 Frc consts  --      0.3604                 0.3747                 0.3817
 IR Inten    --      1.7886                 7.7989                 0.7371

                     31                     32                     33
                      A                      A                      A
 Frequencies --    456.1768               494.7600               519.2549
 Red. masses --      2.9864                 3.8683                 6.2005
 Frc consts  --      0.3662                 0.5579                 0.9850
 IR Inten    --      3.3867                 4.9400                 7.9607

                     34                     35                     36
                      A                      A                      A
 Frequencies --    548.8215               584.7109               607.6561
 Red. masses --      1.1296                 5.2999                 5.6665
 Frc consts  --      0.2005                 1.0676                 1.2328
 IR Inten    --     66.5961                 7.6324                 2.1181

                     37                     38                     39
                      A                      A                      A
 Frequencies --    633.0204               694.6426               705.4942
 Red. masses --      4.1709                 7.2782                 3.9373
 Frc consts  --      0.9847                 2.0692                 1.1546
 IR Inten    --      3.5829                 5.5773                 1.3161

                     40                     41                     42
                      A                      A                      A
 Frequencies --    753.2634               755.8935               769.7599
 Red. masses --     11.3110                 5.7157                11.4429
 Frc consts  --      3.7813                 1.9242                 3.9948
 IR Inten    --     20.5106                13.9066                16.1830

                     43                     44                     45
                      A                      A                      A
 Frequencies --    789.8756               817.8922               826.7964
 Red. masses --      6.0142                 2.5200                 3.3714
 Frc consts  --      2.2108                 0.9932                 1.3579
 IR Inten    --      6.4295                 4.0041                72.0088

                     46                     47                     48
                      A                      A                      A
 Frequencies --    853.8606               876.5196               880.2487
 Red. masses --      1.6079                 3.2585                 3.4538
 Frc consts  --      0.6907                 1.4750                 1.5767
 IR Inten    --     15.5887                28.6800                59.9992

                     49                     50                     51
                      A                      A                      A
 Frequencies --    922.2926               923.9731               927.5289
 Red. masses --      5.0405                 1.6449                 1.6851
 Frc consts  --      2.5261                 0.8274                 0.8541
 IR Inten    --      3.8572                 0.0342                 0.1164

                     52                     53                     54
                      A                      A                      A
 Frequencies --    970.6741               978.4054              1017.2297
 Red. masses --      1.2007                 1.3234                 3.1627
 Frc consts  --      0.6666                 0.7464                 1.9281
 IR Inten    --      0.0798                 0.3863                37.6980

                     55                     56                     57
                      A                      A                      A
 Frequencies --   1049.1045              1051.7695              1067.2346
 Red. masses --      1.7864                 1.4125                 3.0275
 Frc consts  --      1.1584                 0.9206                 2.0317
 IR Inten    --     30.7010                 0.8806                43.2804

                     58                     59                     60
                      A                      A                      A
 Frequencies --   1075.0919              1082.1752              1127.8375
 Red. masses --      3.4065                 1.3790                 1.2200
 Frc consts  --      2.3198                 0.9515                 0.9143
 IR Inten    --    179.3462                 9.6218                 0.1331

                     61                     62                     63
                      A                      A                      A
 Frequencies --   1156.7513              1163.6797              1174.1757
 Red. masses --      2.1303                 1.4622                 1.3754
 Frc consts  --      1.6795                 1.1666                 1.1173
 IR Inten    --    838.2281               429.8361                45.1466

                     64                     65                     66
                      A                      A                      A
 Frequencies --   1179.6516              1228.7523              1242.6084
 Red. masses --      2.4582                 2.0051                 2.7968
 Frc consts  --      2.0155                 1.7836                 2.5443
 IR Inten    --    426.7130               231.8605                54.7423

                     67                     68                     69
                      A                      A                      A
 Frequencies --   1265.9917              1270.0704              1281.4490
 Red. masses --      2.7510                 2.9419                 2.8686
 Frc consts  --      2.5978                 2.7959                 2.7754
 IR Inten    --     15.1270               169.5178                 9.1286

                     70                     71                     72
                      A                      A                      A
 Frequencies --   1287.9603              1296.3539              1329.6622
 Red. masses --      3.8376                 2.5105                 5.6736
 Frc consts  --      3.7507                 2.4858                 5.9101
 IR Inten    --     27.4069                19.2482                60.6407

                     73                     74                     75
                      A                      A                      A
 Frequencies --   1399.4832              1401.6897              1416.1143
 Red. masses --      1.2699                 1.2785                 3.0318
 Frc consts  --      1.4654                 1.4799                 3.5821
 IR Inten    --     21.9512                20.5331                33.7025

                     76                     77                     78
                      A                      A                      A
 Frequencies --   1422.4982              1427.6642              1441.5984
 Red. masses --      2.7266                 1.2453                 1.1767
 Frc consts  --      3.2507                 1.4955                 1.4408
 IR Inten    --    375.3395                 8.5274                29.5432

                     79                     80                     81
                      A                      A                      A
 Frequencies --   1467.7129              1471.0685              1490.8613
 Red. masses --      1.1995                 1.0451                 1.0462
 Frc consts  --      1.5225                 1.3326                 1.3700
 IR Inten    --     45.1002                 0.2738                 0.8954

                     82                     83                     84
                      A                      A                      A
 Frequencies --   1491.7740              1492.2362              1497.0788
 Red. masses --      1.0497                 1.0399                 1.0652
 Frc consts  --      1.3763                 1.3644                 1.4066
 IR Inten    --      1.1201                 1.2495                18.7835

                     85                     86                     87
                      A                      A                      A
 Frequencies --   1501.8814              1504.4763              1504.7654
 Red. masses --      1.0480                 1.0534                 1.0424
 Frc consts  --      1.3928                 1.4048                 1.3906
 IR Inten    --     14.7302                 2.7041                18.1100

                     88                     89                     90
                      A                      A                      A
 Frequencies --   1524.6005              1526.0798              1540.5511
 Red. masses --      1.8895                 1.1780                 1.4151
 Frc consts  --      2.5877                 1.6163                 1.9787
 IR Inten    --    117.1747                20.6878               115.1721

                     91                     92                     93
                      A                      A                      A
 Frequencies --   1552.1787              1621.0236              1645.9944
 Red. masses --      2.3388                 4.8625                 6.4930
 Frc consts  --      3.3199                 7.5282                10.3645
 IR Inten    --    535.0863                85.2321               111.2742

                     94                     95                     96
                      A                      A                      A
 Frequencies --   1776.3329              1788.4907              3007.8234
 Red. masses --      9.8779                10.8168                 1.0406
 Frc consts  --     18.3638                20.3855                 5.5467
 IR Inten    --    256.9700               491.7167                31.2213

                     97                     98                     99
                      A                      A                      A
 Frequencies --   3014.1892              3034.5884              3035.4542
 Red. masses --      1.0408                 1.0352                 1.0374
 Frc consts  --      5.5713                 5.6164                 5.6320
 IR Inten    --    123.5909                 9.1306                23.5136

                    100                    101                    102
                      A                      A                      A
 Frequencies --   3042.9873              3052.7892              3057.3833
 Red. masses --      1.0375                 1.1022                 1.1041
 Frc consts  --      5.6602                 6.0520                 6.0805
 IR Inten    --     25.2806                58.6358                 6.7737

                    103                    104                    105
                      A                      A                      A
 Frequencies --   3095.2215              3097.0906              3109.0670
 Red. masses --      1.1019                 1.1018                 1.1028
 Frc consts  --      6.2198                 6.2266                 6.2805
 IR Inten    --      6.8058                17.1689                29.8638

                    106                    107                    108
                      A                      A                      A
 Frequencies --   3110.4231              3137.1395              3140.2276
 Red. masses --      1.1018                 1.1001                 1.0994
 Frc consts  --      6.2804                 6.3790                 6.3877
 IR Inten    --     47.3912                 0.5502                13.8584

                    109                    110                    111
                      A                      A                      A
 Frequencies --   3160.1180              3178.8525              3182.4937
 Red. masses --      1.0962                 1.0943                 1.0912
 Frc consts  --      6.4497                 6.5152                 6.5119
 IR Inten    --      0.9714                 2.2292                 4.2287

                    112                    113                    114
                      A                      A                      A
 Frequencies --   3193.5860              3246.2711              3627.7359
 Red. masses --      1.0912                 1.0925                 1.0766
 Frc consts  --      6.5568                 6.7833                 8.3481
 IR Inten    --      3.2039                 8.1023                36.3839

 - Thermochemistry -
 -------------------
 Temperature   298.150 Kelvin.  Pressure   1.00000 Atm.
 Atom     1 has atomic number  7 and mass  14.00307

 Molecular mass:   314.10334 amu.
 Principal axes and moments of inertia in atomic units:
                           1         2         3
     Eigenvalues --  2211.12443********************
           X            0.99998   0.00597  -0.00255
           Y           -0.00597   0.99998  -0.00284
           Z            0.00254   0.00285   0.99999
 This molecule is an asymmetric top.
 Rotational symmetry number  1.
 Warning -- assumption of classical behavior for rotation
           may cause significant error
 Rotational temperatures (Kelvin)      0.03917     0.00448     0.00426
 Rotational constants (GHZ):           0.81621     0.09339     0.08869
 Zero-point vibrational energy     839945.5 (Joules/Mol)
                                  200.75180 (Kcal/Mol)
 Warning -- explicit consideration of  36 degrees of freedom as
           vibrations may cause significant error
 Vibrational temperatures:     20.45    32.00    40.81    44.63    47.54
          (Kelvin)             79.73   111.39   119.36   145.02   165.23
                              186.69   221.03   251.47   255.12   292.14
                              300.50   318.13   349.26   359.31   389.08
                              410.26   441.03   476.14   500.02   511.83
                              564.32   601.41   620.34   641.96   653.34
                              656.34   711.85   747.09   789.63   841.27
                              874.28   910.77   999.43  1015.05  1083.78
                             1087.56  1107.51  1136.45  1176.76  1189.57
                             1228.51  1261.11  1266.48  1326.97  1329.39
                             1334.51  1396.58  1407.71  1463.56  1509.43
                             1513.26  1535.51  1546.82  1557.01  1622.70
                             1664.30  1674.27  1689.37  1697.25  1767.90
                             1787.83  1821.48  1827.35  1843.72  1853.09
                             1865.16  1913.08  2013.54  2016.72  2037.47
                             2046.66  2054.09  2074.14  2111.71  2116.54
                             2145.01  2146.33  2146.99  2153.96  2160.87
                             2164.60  2165.02  2193.56  2195.69  2216.51
                             2233.24  2332.29  2368.22  2555.74  2573.24
                             4327.58  4336.74  4366.09  4367.34  4378.17
                             4392.28  4398.89  4453.33  4456.02  4473.25
                             4475.20  4513.64  4518.08  4546.70  4573.65
                             4578.89  4594.85  4670.65  5219.50

 Zero-point correction=                           0.319918 (Hartree/Particle)
 Thermal correction to Energy=                    0.342930
 Thermal correction to Enthalpy=                  0.343874
 Thermal correction to Gibbs Free Energy=         0.263679
 Sum of electronic and zero-point Energies=          -1415.559204
 Sum of electronic and thermal Energies=             -1415.536193
 Sum of electronic and thermal Enthalpies=           -1415.535249
 Sum of electronic and thermal Free Energies=        -1415.615444

                     E (Thermal)             CV                S
                      KCal/Mol        Cal/Mol-Kelvin    Cal/Mol-Kelvin
 Total                  215.192             82.766            168.784
 Electronic               0.000              0.000              0.000
 Translational            0.889              2.981             43.130
 Rotational               0.889              2.981             35.118
 Vibrational            213.414             76.804             90.536
 Vibration     1          0.593              1.986              7.313
 Vibration     2          0.593              1.985              6.423
 Vibration     3          0.593              1.984              5.940
 Vibration     4          0.594              1.984              5.763
 Vibration     5          0.594              1.983              5.638
 Vibration     6          0.596              1.975              4.614
 Vibration     7          0.599              1.964              3.955
 Vibration     8          0.600              1.961              3.820
 Vibration     9          0.604              1.948              3.439
 Vibration    10          0.608              1.937              3.185
 Vibration    11          0.612              1.924              2.950
 Vibration    12          0.619              1.899              2.627
 Vibration    13          0.627              1.873              2.383
 Vibration    14          0.628              1.870              2.356
 Vibration    15          0.639              1.836              2.105
 Vibration    16          0.642              1.827              2.054
 Vibration    17          0.648              1.809              1.950
 Vibration    18          0.659              1.775              1.783
 Vibration    19          0.663              1.763              1.732
 Vibration    20          0.674              1.728              1.593
 Vibration    21          0.683              1.701              1.503
 Vibration    22          0.697              1.661              1.381
 Vibration    23          0.713              1.614              1.256
 Vibration    24          0.725              1.580              1.177
 Vibration    25          0.731              1.563              1.141
 Vibration    26          0.760              1.487              0.992
 Vibration    27          0.781              1.431              0.899
 Vibration    28          0.792              1.402              0.855
 Vibration    29          0.805              1.369              0.807
 Vibration    30          0.813              1.352              0.784
 Vibration    31          0.814              1.347              0.777
 Vibration    32          0.850              1.262              0.671
 Vibration    33          0.874              1.207              0.612
 Vibration    34          0.904              1.142              0.547
 Vibration    35          0.942              1.064              0.477
 Vibration    36          0.966              1.016              0.437

 Optimization completed.
    -- Stationary point found.
 Normal termination of Gaussian 09 at Tue Apr 23 16:53:32 2024.
