 Gaussian 09, Revision D.01,
 Gaussian 09:  ES64L-G09RevD.01 24-Apr-2013

 ---------------------------------------------------------------------
 # b3lyp/6-311+g(d,p) geom=connectivity pop=(hirshfeld,chelpg,mbs,npa)
 ---------------------------------------------------------------------

 --------
 Chart4_9
 --------
 Symbolic Z-matrix:
 Charge =  0 Multiplicity = 1

                         Standard orientation:
 ---------------------------------------------------------------------
 Center     Atomic      Atomic             Coordinates (Angstroms)
 Number     Number       Type             X           Y           Z
 ---------------------------------------------------------------------
      1          6           0        0.000000    1.215149   -0.266467
      2          6           0        0.003153    1.201873    1.122529
      3          6           0        0.000000    0.000000    1.809865
      4          6           0       -0.003153   -1.201873    1.122529
      5          6           0        0.000000   -1.215149   -0.266467
      6          6           0        0.000000    0.000000   -0.940548
      7          1           0        0.006454    2.129957    1.667755
      8          1           0        0.000000    0.000000    2.885865
      9          1           0       -0.006454   -2.129957    1.667755
     10          1           0        0.000000    0.000000   -2.018175
     11          6           0        0.034336   -2.519229   -1.028536
     12          1           0       -0.457866   -2.425406   -1.990446
     13          1           0        1.059546   -2.831936   -1.210700
     14          1           0       -0.458073   -3.310329   -0.473564
     15          6           0       -0.034336    2.519229   -1.028536
     16          1           0        0.457866    2.425406   -1.990446
     17          1           0       -1.059546    2.831936   -1.210700
     18          1           0        0.458073    3.310329   -0.473564
 ---------------------------------------------------------------------

 SCF Done:  E(RB3LYP) =  -310.965348336     A.U. after   12 cycles

 The electronic state is 1-A.
 Alpha  occ. eigenvalues --  -10.17912 -10.17912 -10.16874 -10.16455 -10.16455
 Alpha  occ. eigenvalues --  -10.16415 -10.16411 -10.16369  -0.86412  -0.78481
 Alpha  occ. eigenvalues --   -0.76203  -0.69519  -0.68360  -0.60088  -0.57439
 Alpha  occ. eigenvalues --   -0.50801  -0.47375  -0.44680  -0.42876  -0.41772
 Alpha  occ. eigenvalues --   -0.41386  -0.40698  -0.39947  -0.37857  -0.34958
 Alpha  occ. eigenvalues --   -0.34005  -0.33867  -0.24947  -0.24189
 Alpha virt. eigenvalues --   -0.01155  -0.00845   0.00406   0.01809   0.01965
 Alpha virt. eigenvalues --    0.03884   0.03963   0.04210   0.05730   0.06241
 Alpha virt. eigenvalues --    0.06463   0.07220   0.08127   0.08303   0.10155

 Mulliken charges:
               1
     1  C    0.848554
     2  C   -0.543247
     3  C   -0.022796
     4  C   -0.543247
     5  C    0.848554
     6  C   -0.840194
     7  H    0.113776
     8  H    0.120104
     9  H    0.113776
    10  H    0.107042
    11  C   -0.543309
    12  H    0.137867
    13  H    0.165742
    14  H    0.138540
    15  C   -0.543309
    16  H    0.137867
    17  H    0.165742
    18  H    0.138540
 Sum of Mulliken charges =   0.00000

 Dipole moment (field-independent basis, Debye):
    X=              0.0000    Y=              0.0000    Z=             -0.3710  Tot=              0.3710
 Quadrupole moment (field-independent basis, Debye-Ang):
   XX=            -52.6132   YY=            -44.9808   ZZ=            -46.0312
   XY=             -0.1680   XZ=              0.0000   YZ=              0.0000

 ESP charges:
               1
     1  C    0.236990
     2  C   -0.232217
     3  C   -0.042339
     4  C   -0.232217
     5  C    0.236990
     6  C   -0.339265
     7  H    0.111534
     8  H    0.083597
     9  H    0.111534
    10  H    0.140608
    11  C   -0.212602
    12  H    0.057497
    13  H    0.059199
    14  H    0.058298
    15  C   -0.212602
    16  H    0.057497
    17  H    0.059199
    18  H    0.058298
 Sum of ESP charges =   0.00000

 Summary of Natural Population Analysis:

                                       Natural Population
                Natural  -----------------------------------------------
    Atom  No    Charge         Core      Valence    Rydberg      Total
 -----------------------------------------------------------------------
      C    1   -0.02104      1.99903     4.00614    0.01586     6.02104
      C    2   -0.21631      1.99904     4.20027    0.01700     6.21631
      C    3   -0.18568      1.99916     4.16794    0.01858     6.18568
      C    4   -0.21631      1.99904     4.20027    0.01700     6.21631
      C    5   -0.02104      1.99903     4.00614    0.01586     6.02104
      C    6   -0.21068      1.99894     4.19595    0.01579     6.21068
      H    7    0.20014      0.00000     0.79823    0.00163     0.79986
      H    8    0.20125      0.00000     0.79704    0.00172     0.79875
      H    9    0.20014      0.00000     0.79823    0.00163     0.79986
      H   10    0.19685      0.00000     0.80133    0.00183     0.80315
      C   11   -0.58596      1.99930     4.57686    0.00980     6.58596
      H   12    0.20520      0.00000     0.79345    0.00135     0.79480
      H   13    0.21134      0.00000     0.78726    0.00140     0.78866
      H   14    0.20576      0.00000     0.79292    0.00132     0.79424
      C   15   -0.58596      1.99930     4.57686    0.00980     6.58596
      H   16    0.20520      0.00000     0.79345    0.00135     0.79480
      H   17    0.21134      0.00000     0.78726    0.00140     0.78866
      H   18    0.20576      0.00000     0.79292    0.00132     0.79424
 =======================================================================
   * Total *    0.00000     15.99284    41.87252    0.13464    58.00000

 Normal termination of Gaussian 09 at Fri Jul 23 17:24:46 2021.
