 Gaussian 09, Revision D.01,
 Gaussian 09:  ES64L-G09RevD.01 24-Apr-2013

 ----------------------------------------------------------------------
 # opt freq b3lyp/6-311+g(d,p) geom=connectivity pop=(hirshfeld,chelpg,
 mbs,npa)
 ----------------------------------------------------------------------

 -------------------
 Title Card Required
 -------------------
 Symbolic Z-matrix:
 Charge =  0 Multiplicity = 1

 SCF Done:  E(RB3LYP) =  -1243.69219672     A.U. after   15 cycles
 SCF Done:  E(RB3LYP) =  -1243.71155922     A.U. after   13 cycles
 SCF Done:  E(RB3LYP) =  -1243.71733696     A.U. after   13 cycles
 SCF Done:  E(RB3LYP) =  -1243.71815847     A.U. after   12 cycles
 SCF Done:  E(RB3LYP) =  -1243.71827780     A.U. after   11 cycles
 SCF Done:  E(RB3LYP) =  -1243.71829412     A.U. after   10 cycles
 SCF Done:  E(RB3LYP) =  -1243.71829535     A.U. after    9 cycles
 Optimization completed.
    -- Stationary point found.
 Normal termination of Gaussian 09 at Mon Jan  9 17:12:44 2023.

 ----------------------------------------------------------------------
 #N Geom=AllCheck Guess=TCheck SCRF=Check GenChk RB3LYP/6-311+G(d,p) Fr
 eq
 ----------------------------------------------------------------------

 Structure from the checkpoint file:  "aryltrifluorborates1_Carreira.chk"
 -------------------
 Title Card Required
 -------------------
 Charge =  0 Multiplicity = 1

                         Standard orientation:
 ---------------------------------------------------------------------
 Center     Atomic      Atomic             Coordinates (Angstroms)
 Number     Number       Type             X           Y           Z
 ---------------------------------------------------------------------
      1          6           0       -1.003725   -0.601038   -0.000021
      2          6           0       -0.020557    0.370045   -0.000006
      3          6           0       -0.299262    1.734325    0.000005
      4          6           0       -1.636316    2.112097   -0.000001
      5          6           0       -2.660934    1.165393   -0.000016
      6          6           0       -2.345373   -0.195726   -0.000023
      7          1           0       -0.775360   -1.656711   -0.000025
      8          1           0        0.488522    2.472207    0.000015
      9          1           0       -1.887851    3.166069    0.000004
     10          1           0       -3.690003    1.497447   -0.000024
     11         16           0        1.735247   -0.172607    0.000003
     12          9           0        1.468252   -1.306395   -1.161710
     13          9           0        1.468185   -1.306597    1.161501
     14          9           0        3.300057   -0.650102    0.000010
     15          9           0        2.146795    0.916653    1.162103
     16          9           0        2.146872    0.916854   -1.161883
     17          8           0       -3.254136   -1.204649   -0.000038
     18          6           0       -4.640661   -0.878436    0.000046
     19          1           0       -5.166763   -1.830873    0.000097
     20          1           0       -4.914890   -0.311444    0.895524
     21          1           0       -4.915009   -0.311477   -0.895417
 ---------------------------------------------------------------------

 SCF Done:  E(RB3LYP) =  -1243.71829535     A.U. after    1 cycles

 The electronic state is 1-A.
 Alpha  occ. eigenvalues --  -89.21945 -24.71637 -24.71620 -24.71619 -24.71595
 Alpha  occ. eigenvalues --  -24.71594 -19.18287 -10.27116 -10.25078 -10.24845
 Alpha  occ. eigenvalues --  -10.21288 -10.21208 -10.21010 -10.20853  -8.26488
 Alpha  occ. eigenvalues --   -6.23000  -6.22987  -6.22441  -1.33871  -1.24626
 Alpha  occ. eigenvalues --   -1.24562  -1.22062  -1.20712  -1.09978  -0.90520
 Alpha  occ. eigenvalues --   -0.84253  -0.79686  -0.77714  -0.73124  -0.66681
 Alpha  occ. eigenvalues --   -0.64668  -0.63260  -0.62832  -0.60118  -0.55390
 Alpha  occ. eigenvalues --   -0.53067  -0.52924  -0.51656  -0.51152  -0.49960
 Alpha  occ. eigenvalues --   -0.49810  -0.49804  -0.47474  -0.46805  -0.45137
 Alpha  occ. eigenvalues --   -0.44995  -0.44973  -0.44872  -0.42882  -0.42804
 Alpha  occ. eigenvalues --   -0.41888  -0.41539  -0.41169  -0.41125  -0.39197
 Alpha  occ. eigenvalues --   -0.36190  -0.35836  -0.29724  -0.25945
 Alpha virt. eigenvalues --   -0.09603  -0.05830  -0.03532  -0.01250   0.00644
 Alpha virt. eigenvalues --    0.01239   0.02518   0.02944   0.03253   0.04137
 Alpha virt. eigenvalues --    0.04179   0.04701   0.05975   0.06057   0.06525

 Mulliken charges:
               1
     1  C    0.174863
     2  C   -0.917342
     3  C    0.291668
     4  C   -0.768859
     5  C    0.552121
     6  C   -0.671508
     7  H    0.162385
     8  H    0.158896
     9  H    0.141694
    10  H    0.133911
    11  S    0.670212
    12  F   -0.000318
    13  F   -0.000333
    14  F   -0.015483
    15  F    0.004643
    16  F    0.004626
    17  O   -0.173700
    18  C   -0.218470
    19  H    0.167306
    20  H    0.151842
    21  H    0.151845
 Sum of Mulliken charges =   0.00000

 Dipole moment (field-independent basis, Debye):
    X=             -6.2488    Y=              1.8500    Z=              0.0001  Tot=              6.5169
 Quadrupole moment (field-independent basis, Debye-Ang):
   XX=            -75.0041   YY=            -83.1245   ZZ=            -91.5097
   XY=             -0.6277   XZ=             -0.0004   YZ=             -0.0002

  Exact polarizability: 147.659   3.692 114.697   0.000   0.000  73.854
 Approx polarizability: 198.604   7.330 194.067   0.000   0.001 113.463

 ESP charges:
               1
     1  C   -0.322216
     2  C    0.136752
     3  C   -0.195337
     4  C   -0.045443
     5  C   -0.265601
     6  C    0.483962
     7  H    0.188055
     8  H    0.159668
     9  H    0.109878
    10  H    0.139743
    11  S    0.798757
    12  F   -0.215781
    13  F   -0.215764
    14  F   -0.147631
    15  F   -0.222794
    16  F   -0.222774
    17  O   -0.410391
    18  C    0.136006
    19  H    0.069989
    20  H    0.020454
    21  H    0.020469
 Sum of ESP charges =   0.00000

 Summary of Natural Population Analysis:

                                       Natural Population
                Natural  -----------------------------------------------
    Atom  No    Charge         Core      Valence    Rydberg      Total
 -----------------------------------------------------------------------
      C    1   -0.23228      1.99889     4.21345    0.01994     6.23228
      C    2   -0.16249      1.99870     4.13675    0.02704     6.16249
      C    3   -0.23014      1.99898     4.21129    0.01986     6.23014
      C    4   -0.16935      1.99917     4.15244    0.01774     6.16935
      C    5   -0.27137      1.99906     4.25702    0.01528     6.27137
      C    6    0.33626      1.99879     3.64163    0.02332     5.66374
      H    7    0.25452      0.00000     0.74338    0.00211     0.74548
      H    8    0.24188      0.00000     0.75647    0.00165     0.75812
      H    9    0.21708      0.00000     0.78149    0.00143     0.78292
      H   10    0.21914      0.00000     0.77912    0.00174     0.78086
      S   11    2.28286      9.99842     3.54699    0.17173    13.71714
      F   12   -0.46427      1.99996     7.45844    0.00587     9.46427
      F   13   -0.46427      1.99996     7.45844    0.00587     9.46427
      F   14   -0.43219      1.99996     7.42530    0.00693     9.43219
      F   15   -0.46449      1.99996     7.45861    0.00591     9.46449
      F   16   -0.46449      1.99996     7.45861    0.00591     9.46449
      O   17   -0.53207      1.99971     6.51545    0.01691     8.53207
      C   18   -0.20961      1.99926     4.19479    0.01556     6.20961
      H   19    0.19832      0.00000     0.80066    0.00103     0.80168
      H   20    0.17347      0.00000     0.82442    0.00211     0.82653
      H   21    0.17347      0.00000     0.82442    0.00211     0.82653
 =======================================================================
   * Total *    0.00000     35.99080    81.63918    0.37003   118.00000

                      1                      2                      3
                      A                      A                      A
 Frequencies --     26.8680                72.8103               117.6295
 Red. masses --      7.3994                 3.4593                 5.9858
 Frc consts  --      0.0031                 0.0108                 0.0488
 IR Inten    --      0.0831                 3.2476                 1.0520

                      4                      5                      6
                      A                      A                      A
 Frequencies --    126.0314               198.9832               219.0299
 Red. masses --      7.9771                 1.5313                 8.1489
 Frc consts  --      0.0747                 0.0357                 0.2303
 IR Inten    --      0.0562                 0.1623                 0.9036

                      7                      8                      9
                      A                      A                      A
 Frequencies --    251.7984               259.7754               263.3893
 Red. masses --      5.4141                 5.2934                 2.1517
 Frc consts  --      0.2022                 0.2105                 0.0879
 IR Inten    --      7.0882                 0.5569                 0.4037

                     10                     11                     12
                      A                      A                      A
 Frequencies --    306.6766               313.7901               366.0221
 Red. masses --      5.0018                18.8506                 9.2411
 Frc consts  --      0.2772                 1.0936                 0.7294
 IR Inten    --      4.5596                 0.0002                 0.2335

                     13                     14                     15
                      A                      A                      A
 Frequencies --    381.6768               421.7209               465.1240
 Red. masses --     11.2103                18.9568                 3.4750
 Frc consts  --      0.9622                 1.9864                 0.4429
 IR Inten    --      0.3170                 0.0580                 1.6886

                     16                     17                     18
                      A                      A                      A
 Frequencies --    478.7032               506.0705               509.9650
 Red. masses --      6.3459                14.5976                12.5476
 Frc consts  --      0.8568                 2.2027                 1.9226
 IR Inten    --      3.9699                 8.5000                 3.2076

                     19                     20                     21
                      A                      A                      A
 Frequencies --    535.4621               540.5697               574.1825
 Red. masses --     18.7696                18.4207                 4.8840
 Frc consts  --      3.1708                 3.1715                 0.9487
 IR Inten    --      0.0168                36.8026                 3.9953

                     22                     23                     24
                      A                      A                      A
 Frequencies --    589.2160               601.0461               661.0041
 Red. masses --     18.7349                 5.8871                 8.1254
 Frc consts  --      3.8322                 1.2531                 2.0917
 IR Inten    --     20.3594                 0.3332                55.2161

                     25                     26                     27
                      A                      A                      A
 Frequencies --    683.2241               758.7181               776.0210
 Red. masses --      2.3814                12.5285                 1.3992
 Frc consts  --      0.6550                 4.2492                 0.4964
 IR Inten    --      6.8218               397.4649                20.4108

                     28                     29                     30
                      A                      A                      A
 Frequencies --    783.2935               787.7444               857.6920
 Red. masses --     19.5151                23.0992                 7.2279
 Frc consts  --      7.0546                 8.4454                 3.1327
 IR Inten    --    406.0959               325.6261                72.7091

                     31                     32                     33
                      A                      A                      A
 Frequencies --    883.3735               893.8771               983.1927
 Red. masses --      1.5221                 1.3607                 1.3009
 Frc consts  --      0.6998                 0.6406                 0.7409
 IR Inten    --     24.3839                 0.0004                 0.0361

                     34                     35                     36
                      A                      A                      A
 Frequencies --   1006.3427              1061.5932              1089.4875
 Red. masses --      5.6915                 8.9463                 1.8328
 Frc consts  --      3.3960                 5.9403                 1.2818
 IR Inten    --      3.3839                49.1977                21.1096

                     37                     38                     39
                      A                      A                      A
 Frequencies --   1120.8222              1169.0909              1199.6866
 Red. masses --      1.5901                 1.2715                 1.1365
 Frc consts  --      1.1769                 1.0239                 0.9637
 IR Inten    --      3.4678                 0.7243                 1.5661

                     40                     41                     42
                      A                      A                      A
 Frequencies --   1203.1338              1267.1876              1320.1172
 Red. masses --      1.3711                 3.3633                 1.6003
 Frc consts  --      1.1694                 3.1820                 1.6432
 IR Inten    --      6.7856               190.4624                72.1173

                     43                     44                     45
                      A                      A                      A
 Frequencies --   1349.1905              1469.7983              1475.7346
 Red. masses --      4.4618                 1.7209                 1.6506
 Frc consts  --      4.7853                 2.1904                 2.1179
 IR Inten    --     16.5940                49.6696                 0.4086

                     46                     47                     48
                      A                      A                      A
 Frequencies --   1494.0644              1503.4519              1513.8960
 Red. masses --      1.0452                 1.0830                 2.2030
 Frc consts  --      1.3747                 1.4423                 2.9748
 IR Inten    --     10.5464                34.5152                95.0358

                     49                     50                     51
                      A                      A                      A
 Frequencies --   1613.3863              1640.0716              3011.3265
 Red. masses --      6.2208                 6.1441                 1.0344
 Frc consts  --      9.5405                 9.7372                 5.5268
 IR Inten    --     15.3419               114.6033                47.4647

                     52                     53                     54
                      A                      A                      A
 Frequencies --   3073.6271              3143.9867              3183.4656
 Red. masses --      1.1067                 1.0995                 1.0892
 Frc consts  --      6.1599                 6.4035                 6.5036
 IR Inten    --     31.8088                15.1659                 5.6507

                     55                     56                     57
                      A                      A                      A
 Frequencies --   3212.6395              3232.4016              3236.9649
 Red. masses --      1.0920                 1.0920                 1.0935
 Frc consts  --      6.6405                 6.7224                 6.7509
 IR Inten    --      3.7799                 5.5714                 2.3463

 - Thermochemistry -
 -------------------
 Temperature   298.150 Kelvin.  Pressure   1.00000 Atm.
 Atom     1 has atomic number  6 and mass  12.00000

 Molecular mass:   234.01378 amu.
 Principal axes and moments of inertia in atomic units:
                           1         2         3
     Eigenvalues --  1355.402864921.287915532.54693
           X            0.99999   0.00496   0.00000
           Y           -0.00496   0.99999   0.00000
           Z            0.00000   0.00000   1.00000
 This molecule is an asymmetric top.
 Rotational symmetry number  1.
 Warning -- assumption of classical behavior for rotation
           may cause significant error
 Rotational temperatures (Kelvin)      0.06390     0.01760     0.01566
 Rotational constants (GHZ):           1.33152     0.36672     0.32620
 Zero-point vibrational energy     363581.9 (Joules/Mol)
                                   86.89816 (Kcal/Mol)
 Warning -- explicit consideration of  23 degrees of freedom as
           vibrations may cause significant error
 Vibrational temperatures:     38.66   104.76   169.24   181.33   286.29
          (Kelvin)            315.13   362.28   373.76   378.96   441.24
                              451.47   526.62   549.15   606.76   669.21
                              688.75   728.12   733.72   770.41   777.76
                              826.12   847.75   864.77   951.04   983.01
                             1091.62  1116.52  1126.98  1133.39  1234.03
                             1270.98  1286.09  1414.59  1447.90  1527.39
                             1567.53  1612.61  1682.06  1726.08  1731.04
                             1823.20  1899.35  1941.18  2114.71  2123.25
                             2149.62  2163.13  2178.16  2321.30  2359.69
                             4332.62  4422.26  4523.49  4580.29  4622.27
                             4650.70  4657.26

 Zero-point correction=                           0.138481 (Hartree/Particle)
 Thermal correction to Energy=                    0.151527
 Thermal correction to Enthalpy=                  0.152471
 Thermal correction to Gibbs Free Energy=         0.098600
 Sum of electronic and zero-point Energies=          -1243.579814
 Sum of electronic and thermal Energies=             -1243.566769
 Sum of electronic and thermal Enthalpies=           -1243.565824
 Sum of electronic and thermal Free Energies=        -1243.619695

                     E (Thermal)             CV                S
                      KCal/Mol        Cal/Mol-Kelvin    Cal/Mol-Kelvin
 Total                   95.084             50.349            113.381
 Electronic               0.000              0.000              0.000
 Translational            0.889              2.981             42.252
 Rotational               0.889              2.981             31.979
 Vibrational             93.307             44.388             39.149
 Vibration     1          0.593              1.984              6.048
 Vibration     2          0.599              1.967              4.076
 Vibration     3          0.608              1.935              3.139
 Vibration     4          0.611              1.927              3.006
 Vibration     5          0.637              1.841              2.142
 Vibration     6          0.647              1.812              1.967
 Vibration     7          0.664              1.760              1.718
 Vibration     8          0.668              1.746              1.663
 Vibration     9          0.670              1.740              1.639
 Vibration    10          0.697              1.661              1.380
 Vibration    11          0.702              1.647              1.342
 Vibration    12          0.739              1.542              1.096
 Vibration    13          0.751              1.509              1.033
 Vibration    14          0.784              1.423              0.886
 Vibration    15          0.823              1.327              0.751
 Vibration    16          0.835              1.297              0.714
 Vibration    17          0.861              1.237              0.643
 Vibration    18          0.865              1.228              0.634
 Vibration    19          0.890              1.172              0.575
 Vibration    20          0.896              1.160              0.564
 Vibration    21          0.930              1.087              0.496
 Vibration    22          0.946              1.055              0.469
 Vibration    23          0.959              1.030              0.448

 Optimization completed.
    -- Stationary point found.
 Normal termination of Gaussian 09 at Mon Jan  9 17:17:11 2023.
