 Gaussian 09, Revision D.01,
 Gaussian 09:  ES64L-G09RevD.01 24-Apr-2013

 ----------------------------------------------------------------------
 # opt freq=noraman b3lyp/6-311+g(d,p) pop=(npa,hirshfeld,chelpg,mbs) g
 eom=connectivity
 ----------------------------------------------------------------------

 -------------------
 Title Card Required
 -------------------
 Symbolic Z-matrix:
 Charge =  0 Multiplicity = 1

 SCF Done:  E(RB3LYP) =  -1093.15522122     A.U. after   16 cycles
 SCF Done:  E(RB3LYP) =  -1093.18768686     A.U. after   15 cycles
 SCF Done:  E(RB3LYP) =  -1093.19987138     A.U. after   15 cycles
 SCF Done:  E(RB3LYP) =  -1093.21176734     A.U. after   15 cycles
 SCF Done:  E(RB3LYP) =  -1093.21954299     A.U. after   16 cycles
 SCF Done:  E(RB3LYP) =  -1093.21798233     A.U. after   15 cycles
 SCF Done:  E(RB3LYP) =  -1093.22116593     A.U. after   11 cycles
 SCF Done:  E(RB3LYP) =  -1093.22346836     A.U. after   14 cycles
 SCF Done:  E(RB3LYP) =  -1093.22741659     A.U. after   16 cycles
 SCF Done:  E(RB3LYP) =  -1093.23047569     A.U. after   14 cycles
 SCF Done:  E(RB3LYP) =  -1093.23601169     A.U. after   11 cycles
 SCF Done:  E(RB3LYP) =  -1093.23601900     A.U. after   11 cycles
 SCF Done:  E(RB3LYP) =  -1093.23602385     A.U. after   11 cycles
 SCF Done:  E(RB3LYP) =  -1093.23602751     A.U. after   11 cycles
 SCF Done:  E(RB3LYP) =  -1093.23602977     A.U. after   11 cycles
 SCF Done:  E(RB3LYP) =  -1093.23603073     A.U. after   10 cycles
 SCF Done:  E(RB3LYP) =  -1093.23603121     A.U. after   10 cycles
 SCF Done:  E(RB3LYP) =  -1093.23603156     A.U. after   10 cycles
 SCF Done:  E(RB3LYP) =  -1093.23603162     A.U. after    8 cycles
 Optimization completed.
    -- Stationary point found.
 Normal termination of Gaussian 09 at Tue Apr 23 14:52:27 2024.

 ----------------------------------------------------------------------
 #N Geom=AllCheck Guess=TCheck SCRF=Check GenChk RB3LYP/6-311+G(d,p) Fr
 eq
 ----------------------------------------------------------------------

 Structure from the checkpoint file:  "84.chk"
 -------------------
 Title Card Required
 -------------------
 Charge =  0 Multiplicity = 1

                         Standard orientation:
 ---------------------------------------------------------------------
 Center     Atomic      Atomic             Coordinates (Angstroms)
 Number     Number       Type             X           Y           Z
 ---------------------------------------------------------------------
      1          6           0       -2.111466    0.684143   -0.203599
      2          6           0       -3.404506    0.219791    0.007878
      3          6           0       -3.690009   -1.139978    0.061316
      4          6           0       -2.645330   -2.047091   -0.107904
      5          6           0       -1.341175   -1.613483   -0.330172
      6          6           0       -1.088951   -0.245015   -0.372171
      7          1           0       -1.892309    1.742548   -0.243288
      8          1           0       -4.703475   -1.479259    0.229775
      9          1           0       -2.853346   -3.109972   -0.068112
     10          1           0       -0.533992   -2.320951   -0.454558
     11         17           0       -4.704996    1.387276    0.214786
     12          8           0        0.163697    0.274804   -0.667740
     13          6           0        1.282423   -0.166832    0.029397
     14          8           0        1.245254   -0.972966    0.928118
     15          7           0        2.370410    0.460445   -0.472953
     16          1           0        2.198785    1.117911   -1.217823
     17          6           0        3.760275    0.295602    0.018559
     18          6           0        3.855350    0.728584    1.492123
     19          1           0        4.885653    0.631552    1.844723
     20          1           0        3.550701    1.772292    1.607327
     21          1           0        3.215680    0.108159    2.120496
     22          6           0        4.627367    1.212768   -0.855795
     23          1           0        5.672532    1.142952   -0.548389
     24          1           0        4.566904    0.925531   -1.909894
     25          1           0        4.318391    2.258112   -0.759036
     26          6           0        4.208988   -1.166409   -0.148594
     27          1           0        4.152013   -1.468305   -1.197882
     28          1           0        5.243902   -1.279726    0.185490
     29          1           0        3.581222   -1.834831    0.441221
 ---------------------------------------------------------------------

 SCF Done:  E(RB3LYP) =  -1093.23603162     A.U. after    1 cycles

 The electronic state is 1-A.
 Alpha  occ. eigenvalues -- -101.55556 -19.18055 -19.10806 -14.34987 -10.33268
 Alpha  occ. eigenvalues --  -10.25336 -10.24541 -10.23906 -10.19299 -10.19276
 Alpha  occ. eigenvalues --  -10.19012 -10.18696 -10.18045 -10.16593 -10.16541
 Alpha  occ. eigenvalues --   -9.47013  -7.23472  -7.22497  -7.22465  -1.12354
 Alpha  occ. eigenvalues --   -1.03774  -0.94963  -0.89889  -0.84545  -0.81469
 Alpha  occ. eigenvalues --   -0.76833  -0.74538  -0.70993  -0.69957  -0.67154
 Alpha  occ. eigenvalues --   -0.62792  -0.60388  -0.57702  -0.55875  -0.52237
 Alpha  occ. eigenvalues --   -0.50420  -0.49326  -0.48044  -0.47010  -0.45730
 Alpha  occ. eigenvalues --   -0.45326  -0.44396  -0.44091  -0.42889  -0.40538
 Alpha  occ. eigenvalues --   -0.40437  -0.39797  -0.39184  -0.38385  -0.38142
 Alpha  occ. eigenvalues --   -0.37815  -0.35852  -0.35274  -0.34497  -0.32599
 Alpha  occ. eigenvalues --   -0.31933  -0.29531  -0.27786  -0.26314  -0.25120
 Alpha virt. eigenvalues --   -0.02899  -0.02594  -0.00861   0.00350   0.01322
 Alpha virt. eigenvalues --    0.01711   0.01881   0.02602   0.02949   0.03470
 Alpha virt. eigenvalues --    0.03978   0.04366   0.04874   0.05231   0.05417

 Mulliken charges:
               1
     1  C    0.048769
     2  C    0.707712
     3  C   -0.732545
     4  C   -0.394846
     5  C    0.184632
     6  C   -0.495373
     7  H    0.143906
     8  H    0.148054
     9  H    0.136039
    10  H    0.143312
    11  Cl   0.356823
    12  O   -0.063750
    13  C    0.049585
    14  O   -0.272077
    15  N   -0.274528
    16  H    0.299889
    17  C   -0.215943
    18  C   -0.336015
    19  H    0.136357
    20  H    0.139744
    21  H    0.177463
    22  C   -0.428470
    23  H    0.153571
    24  H    0.146904
    25  H    0.145659
    26  C   -0.359629
    27  H    0.140112
    28  H    0.137386
    29  H    0.177259
 Sum of Mulliken charges =   0.00000

 Dipole moment (field-independent basis, Debye):
    X=              3.0566    Y=              0.2881    Z=             -1.6402  Tot=              3.4809
 Quadrupole moment (field-independent basis, Debye-Ang):
   XX=            -89.7674   YY=            -92.7134   ZZ=           -100.9820
   XY=              9.2905   XZ=             -2.9548   YZ=              0.8773

  Exact polarizability: 211.657  -3.060 154.282  -7.569  -1.576 110.925
 Approx polarizability: 266.771  -6.593 247.091 -14.584  -9.841 170.057

 ESP charges:
               1
     1  C   -0.186604
     2  C    0.115431
     3  C   -0.124883
     4  C   -0.071626
     5  C   -0.220639
     6  C    0.364534
     7  H    0.135359
     8  H    0.108674
     9  H    0.106287
    10  H    0.149767
    11  Cl  -0.144357
    12  O   -0.516327
    13  C    1.005729
    14  O   -0.620608
    15  N   -0.896481
    16  H    0.366538
    17  C    0.844913
    18  C   -0.349101
    19  H    0.055706
    20  H    0.061004
    21  H    0.092705
    22  C   -0.366317
    23  H    0.076520
    24  H    0.076130
    25  H    0.076134
    26  C   -0.364473
    27  H    0.061807
    28  H    0.057184
    29  H    0.106994
 Sum of ESP charges =   0.00000

 Summary of Natural Population Analysis:

                                       Natural Population
                Natural  -----------------------------------------------
    Atom  No    Charge         Core      Valence    Rydberg      Total
 -----------------------------------------------------------------------
      C    1   -0.25753      1.99885     4.24050    0.01818     6.25753
      C    2   -0.02655      1.99859     4.00515    0.02280     6.02655
      C    3   -0.24002      1.99896     4.22198    0.01908     6.24002
      C    4   -0.17504      1.99917     4.15859    0.01728     6.17504
      C    5   -0.23492      1.99904     4.21911    0.01678     6.23492
      C    6    0.32208      1.99871     3.65582    0.02339     5.67792
      H    7    0.23438      0.00000     0.76362    0.00200     0.76562
      H    8    0.22419      0.00000     0.77418    0.00163     0.77581
      H    9    0.21280      0.00000     0.78568    0.00152     0.78720
      H   10    0.22959      0.00000     0.76869    0.00171     0.77041
     Cl   11    0.00044      9.99962     6.98010    0.01985    16.99956
      O   12   -0.57783      1.99969     6.56022    0.01792     8.57783
      C   13    0.92487      1.99936     3.02643    0.04933     5.07513
      O   14   -0.63527      1.99973     6.62502    0.01051     8.63527
      N   15   -0.66075      1.99926     5.64197    0.01952     7.66075
      H   16    0.40471      0.00000     0.59333    0.00195     0.59529
      C   17    0.12080      1.99923     3.86241    0.01756     5.87920
      C   18   -0.58555      1.99927     4.57495    0.01133     6.58555
      H   19    0.20195      0.00000     0.79695    0.00109     0.79805
      H   20    0.20213      0.00000     0.79656    0.00130     0.79787
      H   21    0.22790      0.00000     0.77070    0.00140     0.77210
      C   22   -0.58101      1.99928     4.56988    0.01185     6.58101
      H   23    0.21453      0.00000     0.78450    0.00097     0.78547
      H   24    0.20434      0.00000     0.79425    0.00141     0.79566
      H   25    0.20370      0.00000     0.79489    0.00141     0.79630
      C   26   -0.58512      1.99927     4.57448    0.01137     6.58512
      H   27    0.20190      0.00000     0.79678    0.00132     0.79810
      H   28    0.20208      0.00000     0.79684    0.00108     0.79792
      H   29    0.22721      0.00000     0.77139    0.00141     0.77279
 =======================================================================
   * Total *    0.00000     37.98802    81.70502    0.30696   120.00000

                      1                      2                      3
                      A                      A                      A
 Frequencies --     16.9387                30.6799                55.7253
 Red. masses --      4.2957                 5.3766                 5.5527
 Frc consts  --      0.0007                 0.0030                 0.0102
 IR Inten    --      0.3088                 1.5168                 3.3935

                      4                      5                      6
                      A                      A                      A
 Frequencies --     81.1374               104.5126               172.2479
 Red. masses --      5.4180                 3.7342                 4.6967
 Frc consts  --      0.0210                 0.0240                 0.0821
 IR Inten    --      3.4185                 1.1165                 4.4407

                      7                      8                      9
                      A                      A                      A
 Frequencies --    187.6668               205.7929               218.0049
 Red. masses --      5.0352                 6.1606                 1.0320
 Frc consts  --      0.1045                 0.1537                 0.0289
 IR Inten    --      0.5803                 0.3747                 0.1059

                     10                     11                     12
                      A                      A                      A
 Frequencies --    263.6104               271.4349               277.2829
 Red. masses --      3.6592                 1.1674                 1.0597
 Frc consts  --      0.1498                 0.0507                 0.0480
 IR Inten    --      0.3155                 0.0652                 0.1058

                     13                     14                     15
                      A                      A                      A
 Frequencies --    279.8670               327.5634               347.1636
 Red. masses --      5.0664                 2.9669                 2.4446
 Frc consts  --      0.2338                 0.1876                 0.1736
 IR Inten    --      7.2377                 6.3385                 0.5366

                     16                     17                     18
                      A                      A                      A
 Frequencies --    397.0054               421.7178               422.8981
 Red. masses --      6.2958                 2.3823                 1.7353
 Frc consts  --      0.5846                 0.2496                 0.1829
 IR Inten    --      5.2136                13.8188                43.7146

                     19                     20                     21
                      A                      A                      A
 Frequencies --    439.5036               453.2126               461.9117
 Red. masses --      5.0730                 3.1153                 2.7630
 Frc consts  --      0.5774                 0.3770                 0.3473
 IR Inten    --      3.1579                 4.6942                 6.8003

                     22                     23                     24
                      A                      A                      A
 Frequencies --    473.1489               565.8874               613.0153
 Red. masses --      1.9283                 5.3941                 5.5902
 Frc consts  --      0.2543                 1.0177                 1.2377
 IR Inten    --      6.8831                 0.4263                 0.6029

                     25                     26                     27
                      A                      A                      A
 Frequencies --    686.1810               692.2613               748.4170
 Red. masses --      2.8825                 5.5989                 3.3749
 Frc consts  --      0.7996                 1.5809                 1.1138
 IR Inten    --     15.0203                10.4303                 4.5014

                     28                     29                     30
                      A                      A                      A
 Frequencies --    770.6293               776.9727               795.9576
 Red. masses --      7.0444                 3.5673                 1.7680
 Frc consts  --      2.4648                 1.2688                 0.6600
 IR Inten    --     30.5477                 5.2502                21.1647

                     31                     32                     33
                      A                      A                      A
 Frequencies --    877.3037               887.1883               903.5237
 Red. masses --      4.5895                 1.5492                 1.5293
 Frc consts  --      2.0812                 0.7185                 0.7356
 IR Inten    --     25.1234                19.5806                11.2343

                     34                     35                     36
                      A                      A                      A
 Frequencies --    922.8814               930.5437               940.5561
 Red. masses --      1.7374                 2.2472                 1.9892
 Frc consts  --      0.8718                 1.1465                 1.0368
 IR Inten    --      0.0342                17.1661                50.4127

                     37                     38                     39
                      A                      A                      A
 Frequencies --    970.1204               984.4329              1015.1677
 Red. masses --      1.2018                 1.3120                 5.8963
 Frc consts  --      0.6664                 0.7491                 3.5802
 IR Inten    --      0.1172                 0.2455                 2.0421

                     40                     41                     42
                      A                      A                      A
 Frequencies --   1028.0048              1056.1934              1069.1523
 Red. masses --      4.5351                 1.3861                 1.5581
 Frc consts  --      2.8238                 0.9110                 1.0493
 IR Inten    --    303.3613                 0.2771                39.2744

                     43                     44                     45
                      A                      A                      A
 Frequencies --   1088.7003              1111.6340              1187.4684
 Red. masses --      1.8725                 1.5214                 1.1434
 Frc consts  --      1.3076                 1.1077                 0.9499
 IR Inten    --     27.7685                33.9429                17.1884

                     46                     47                     48
                      A                      A                      A
 Frequencies --   1203.7555              1234.1391              1246.6348
 Red. masses --      2.7680                 2.7062                 2.7580
 Frc consts  --      2.3632                 2.4285                 2.5254
 IR Inten    --    647.9320                38.6754                10.7705

                     49                     50                     51
                      A                      A                      A
 Frequencies --   1251.1313              1277.0272              1297.0734
 Red. masses --      2.7851                 3.0344                 1.8853
 Frc consts  --      2.5686                 2.9155                 1.8688
 IR Inten    --     14.3480               131.7378                12.9408

                     52                     53                     54
                      A                      A                      A
 Frequencies --   1336.5685              1400.2872              1401.4353
 Red. masses --      3.4634                 1.2406                 1.2378
 Frc consts  --      3.6453                 1.4332                 1.4324
 IR Inten    --      0.5958                16.7475                15.2662

                     55                     56                     57
                      A                      A                      A
 Frequencies --   1430.1217              1457.2263              1475.9448
 Red. masses --      1.2370                 2.8967                 1.0448
 Frc consts  --      1.4906                 3.6242                 1.3410
 IR Inten    --     38.1213                28.2409                 0.0934

                     58                     59                     60
                      A                      A                      A
 Frequencies --   1491.4145              1493.7440              1495.2800
 Red. masses --      1.0745                 1.1754                 1.0853
 Frc consts  --      1.4082                 1.5452                 1.4297
 IR Inten    --     41.0977               163.2559                50.0533

                     61                     62                     63
                      A                      A                      A
 Frequencies --   1502.5752              1508.6759              1525.2351
 Red. masses --      1.7688                 1.0557                 1.1122
 Frc consts  --      2.3528                 1.4157                 1.5244
 IR Inten    --    105.1855                 5.8658                66.5015

                     64                     65                     66
                      A                      A                      A
 Frequencies --   1533.4782              1621.2212              1630.5443
 Red. masses --      1.6354                 6.7005                 6.1001
 Frc consts  --      2.2658                10.3763                 9.5554
 IR Inten    --    211.4439                34.4115                54.2723

                     67                     68                     69
                      A                      A                      A
 Frequencies --   1804.1840              3023.2756              3030.2948
 Red. masses --     11.1818                 1.0362                 1.0361
 Frc consts  --     21.4449                 5.5800                 5.6059
 IR Inten    --    312.0414                19.0684                29.0102

                     70                     71                     72
                      A                      A                      A
 Frequencies --   3036.6740              3085.2025              3093.1811
 Red. masses --      1.0373                 1.1028                 1.1023
 Frc consts  --      5.6359                 6.1844                 6.2139
 IR Inten    --     17.8923                15.6815                25.5801

                     73                     74                     75
                      A                      A                      A
 Frequencies --   3095.8634              3109.2355              3122.2758
 Red. masses --      1.1019                 1.0998                 1.1010
 Frc consts  --      6.2221                 6.2644                 6.3239
 IR Inten    --     26.1105                41.4896                 1.3230

                     76                     77                     78
                      A                      A                      A
 Frequencies --   3125.8985              3180.4302              3207.4967
 Red. masses --      1.1004                 1.0887                 1.0936
 Frc consts  --      6.3350                 6.4885                 6.6292
 IR Inten    --     17.6669                 6.8705                 2.2424

                     79                     80                     81
                      A                      A                      A
 Frequencies --   3212.4609              3223.8952              3631.8853
 Red. masses --      1.0926                 1.0938                 1.0774
 Frc consts  --      6.6435                 6.6984                 8.3733
 IR Inten    --      0.2922                 0.9217                38.7092

 - Thermochemistry -
 -------------------
 Temperature   298.150 Kelvin.  Pressure   1.00000 Atm.
 Atom     1 has atomic number  6 and mass  12.00000

 Molecular mass:   227.07131 amu.
 Principal axes and moments of inertia in atomic units:
                           1         2         3
     Eigenvalues --  1269.051938879.129509550.28532
           X            0.99988   0.01533   0.00088
           Y           -0.01532   0.99988  -0.00145
           Z           -0.00091   0.00144   1.00000
 This molecule is an asymmetric top.
 Rotational symmetry number  1.
 Warning -- assumption of classical behavior for rotation
           may cause significant error
 Rotational temperatures (Kelvin)      0.06825     0.00975     0.00907
 Rotational constants (GHZ):           1.42212     0.20326     0.18897
 Zero-point vibrational energy     612051.3 (Joules/Mol)
                                  146.28377 (Kcal/Mol)
 Warning -- explicit consideration of  24 degrees of freedom as
           vibrations may cause significant error
 Vibrational temperatures:     24.37    44.14    80.18   116.74   150.37
          (Kelvin)            247.83   270.01   296.09   313.66   379.28
                              390.53   398.95   402.67   471.29   499.49
                              571.20   606.76   608.46   632.35   652.07
                              664.59   680.75   814.18   881.99   987.26
                              996.01  1076.80  1108.76  1117.89  1145.20
                             1262.24  1276.46  1299.97  1327.82  1338.84
                             1353.25  1395.79  1416.38  1460.60  1479.07
                             1519.62  1538.27  1566.39  1599.39  1708.50
                             1731.93  1775.65  1793.63  1800.10  1837.36
                             1866.20  1923.02  2014.70  2016.35  2057.62
                             2096.62  2123.55  2145.81  2149.16  2151.37
                             2161.87  2170.65  2194.47  2206.33  2332.57
                             2345.99  2595.82  4349.81  4359.91  4369.09
                             4438.91  4450.39  4454.25  4473.49  4492.25
                             4497.47  4575.92  4614.87  4622.01  4638.46
                             5225.47

 Zero-point correction=                           0.233118 (Hartree/Particle)
 Thermal correction to Energy=                    0.248481
 Thermal correction to Enthalpy=                  0.249426
 Thermal correction to Gibbs Free Energy=         0.188840
 Sum of electronic and zero-point Energies=          -1093.002914
 Sum of electronic and thermal Energies=             -1092.987550
 Sum of electronic and thermal Enthalpies=           -1092.986606
 Sum of electronic and thermal Free Energies=        -1093.047192

                     E (Thermal)             CV                S
                      KCal/Mol        Cal/Mol-Kelvin    Cal/Mol-Kelvin
 Total                  155.924             57.705            127.514
 Electronic               0.000              0.000              0.000
 Translational            0.889              2.981             42.163
 Rotational               0.889              2.981             33.042
 Vibrational            154.147             51.744             52.309
 Vibration     1          0.593              1.986              6.964
 Vibration     2          0.594              1.984              5.785
 Vibration     3          0.596              1.975              4.603
 Vibration     4          0.600              1.962              3.863
 Vibration     5          0.605              1.946              3.368
 Vibration     6          0.626              1.877              2.411
 Vibration     7          0.632              1.857              2.251
 Vibration     8          0.640              1.832              2.081
 Vibration     9          0.646              1.814              1.976
 Vibration    10          0.670              1.740              1.638
 Vibration    11          0.675              1.726              1.587
 Vibration    12          0.678              1.715              1.550
 Vibration    13          0.680              1.711              1.534
 Vibration    14          0.711              1.620              1.272
 Vibration    15          0.725              1.581              1.179
 Vibration    16          0.764              1.477              0.974
 Vibration    17          0.784              1.423              0.886
 Vibration    18          0.785              1.420              0.882
 Vibration    19          0.800              1.384              0.828
 Vibration    20          0.812              1.354              0.786
 Vibration    21          0.820              1.335              0.761
 Vibration    22          0.830              1.310              0.729
 Vibration    23          0.922              1.105              0.512
 Vibration    24          0.972              1.004              0.428

 Optimization completed.
    -- Stationary point found.
 Normal termination of Gaussian 09 at Tue Apr 23 15:03:37 2024.
