 Gaussian 09, Revision D.01,
 Gaussian 09:  ES64L-G09RevD.01 24-Apr-2013

 ----------------------------------------------------------------------
 # opt freq=noraman b3lyp/6-311+g(d,p) pop=(npa,hirshfeld,chelpg,mbs) g
 eom=connectivity
 ----------------------------------------------------------------------

 -------------------
 Title Card Required
 -------------------
 Symbolic Z-matrix:
 Charge =  0 Multiplicity = 1

 SCF Done:  E(RB3LYP) =  -772.139268972     A.U. after   15 cycles
 SCF Done:  E(RB3LYP) =  -772.184167333     A.U. after   15 cycles
 SCF Done:  E(RB3LYP) =  -772.181426635     A.U. after   14 cycles
 SCF Done:  E(RB3LYP) =  -772.185769778     A.U. after   11 cycles
 SCF Done:  E(RB3LYP) =  -772.206045308     A.U. after   13 cycles
 SCF Done:  E(RB3LYP) =  -772.208884278     A.U. after   15 cycles
 SCF Done:  E(RB3LYP) =  -772.209964093     A.U. after   13 cycles
 SCF Done:  E(RB3LYP) =  -772.212900323     A.U. after   13 cycles
 SCF Done:  E(RB3LYP) =  -772.214089229     A.U. after   15 cycles
 SCF Done:  E(RB3LYP) =  -772.215437599     A.U. after   15 cycles
 SCF Done:  E(RB3LYP) =  -772.217663609     A.U. after   12 cycles
 SCF Done:  E(RB3LYP) =  -772.217743500     A.U. after   12 cycles
 SCF Done:  E(RB3LYP) =  -772.217760452     A.U. after   11 cycles
 SCF Done:  E(RB3LYP) =  -772.217762562     A.U. after   10 cycles
 SCF Done:  E(RB3LYP) =  -772.217763318     A.U. after    9 cycles
 SCF Done:  E(RB3LYP) =  -772.217763562     A.U. after    8 cycles
 SCF Done:  E(RB3LYP) =  -772.217763622     A.U. after    8 cycles
 SCF Done:  E(RB3LYP) =  -772.217763641     A.U. after    7 cycles
 SCF Done:  E(RB3LYP) =  -772.217763649     A.U. after    7 cycles
 Optimization completed.
    -- Stationary point found.
 Normal termination of Gaussian 09 at Tue Apr 23 14:55:54 2024.

 ----------------------------------------------------------------------
 #N Geom=AllCheck Guess=TCheck SCRF=Check GenChk RB3LYP/6-311+G(d,p) Fr
 eq
 ----------------------------------------------------------------------

 Structure from the checkpoint file:  "85.chk"
 -------------------
 Title Card Required
 -------------------
 Charge =  0 Multiplicity = 1

                         Standard orientation:
 ---------------------------------------------------------------------
 Center     Atomic      Atomic             Coordinates (Angstroms)
 Number     Number       Type             X           Y           Z
 ---------------------------------------------------------------------
      1          6           0       -2.096098   -1.113521   -0.000028
      2          6           0       -1.098907   -0.127248   -0.000079
      3          6           0       -1.468440    1.221817   -0.000112
      4          6           0       -2.821168    1.556772   -0.000081
      5          6           0       -3.777249    0.559289   -0.000018
      6          6           0       -3.453434   -0.795485    0.000007
      7          1           0       -1.808833   -2.161195   -0.000035
      8          1           0       -0.710762    1.989679   -0.000151
      9          1           0       -3.133890    2.593789   -0.000122
     10          6           0       -4.527217   -1.851776    0.000135
     11          1           0       -5.171309   -1.760483    0.879137
     12          1           0       -5.172486   -1.759522   -0.877888
     13          1           0       -4.088342   -2.850855   -0.000681
     14          9           0       -5.093754    0.910586    0.000004
     15          7           0        0.240023   -0.568356   -0.000166
     16          1           0        0.389157   -1.565840   -0.000396
     17          6           0        1.389255    0.184651    0.000019
     18          8           0        1.446120    1.395465    0.000323
     19          8           0        2.445625   -0.664086   -0.000223
     20          6           0        3.838306   -0.165207   -0.000007
     21          6           0        4.650119   -1.460695   -0.000119
     22          1           0        5.718319   -1.231091   -0.000045
     23          1           0        4.424282   -2.057380    0.886485
     24          1           0        4.424365   -2.057190   -0.886872
     25          6           0        4.104621    0.643047   -1.272255
     26          1           0        3.853611    0.053005   -2.157553
     27          1           0        3.526145    1.565471   -1.285776
     28          1           0        5.167245    0.895518   -1.324224
     29          6           0        4.104481    0.642657    1.272518
     30          1           0        3.853241    0.052393    2.157605
     31          1           0        5.167144    0.894918    1.324721
     32          1           0        3.526163    1.565171    1.286236
 ---------------------------------------------------------------------

 SCF Done:  E(RB3LYP) =  -772.217763649     A.U. after    1 cycles

 The electronic state is 1-A.
 Alpha  occ. eigenvalues --  -24.68498 -19.16427 -19.10551 -14.36184 -10.33176
 Alpha  occ. eigenvalues --  -10.25309 -10.25309 -10.23191 -10.19781 -10.18763
 Alpha  occ. eigenvalues --  -10.18429 -10.17849 -10.17770 -10.17109 -10.16524
 Alpha  occ. eigenvalues --  -10.16524  -1.22181  -1.11321  -1.02650  -0.95780
 Alpha  occ. eigenvalues --   -0.86954  -0.82110  -0.78729  -0.75731  -0.70450
 Alpha  occ. eigenvalues --   -0.70227  -0.70213  -0.66278  -0.63520  -0.60170
 Alpha  occ. eigenvalues --   -0.57670  -0.54401  -0.53162  -0.51836  -0.49634
 Alpha  occ. eigenvalues --   -0.48539  -0.47561  -0.47051  -0.45468  -0.45127
 Alpha  occ. eigenvalues --   -0.45101  -0.42934  -0.42335  -0.42251  -0.41929
 Alpha  occ. eigenvalues --   -0.40474  -0.40418  -0.40151  -0.38849  -0.38084
 Alpha  occ. eigenvalues --   -0.37701  -0.36832  -0.35973  -0.35623  -0.34683
 Alpha  occ. eigenvalues --   -0.31475  -0.30929  -0.28535  -0.26258  -0.22515
 Alpha virt. eigenvalues --   -0.02436  -0.01480  -0.00828   0.00413   0.01358
 Alpha virt. eigenvalues --    0.02332   0.02417   0.02898   0.03557   0.04156
 Alpha virt. eigenvalues --    0.04280   0.04585   0.05055   0.05407   0.05681

 Mulliken charges:
               1
     1  C   -1.353802
     2  C    0.101152
     3  C    0.775089
     4  C   -0.121929
     5  C   -0.610131
     6  C    0.837429
     7  H    0.092027
     8  H    0.167858
     9  H    0.135975
    10  C   -0.322067
    11  H    0.165877
    12  H    0.165820
    13  H    0.134845
    14  F   -0.199420
    15  N   -0.335113
    16  H    0.299693
    17  C    0.249212
    18  O   -0.282234
    19  O    0.042881
    20  C   -0.281523
    21  C   -0.365941
    22  H    0.146135
    23  H    0.151136
    24  H    0.151138
    25  C   -0.344444
    26  H    0.149505
    27  H    0.183075
    28  H    0.139825
    29  C   -0.344480
    30  H    0.149508
    31  H    0.139825
    32  H    0.183078
 Sum of Mulliken charges =   0.00000

 Dipole moment (field-independent basis, Debye):
    X=              2.3555    Y=             -2.8584    Z=             -0.0004  Tot=              3.7039
 Quadrupole moment (field-independent basis, Debye-Ang):
   XX=            -93.1940   YY=            -92.5812   ZZ=            -97.6946
   XY=              3.3418   XZ=             -0.0005   YZ=             -0.0012

  Exact polarizability: 223.118   4.425 154.671  -0.002  -0.001 107.528
 Approx polarizability: 281.639   3.028 251.774  -0.003   0.002 157.498

 ESP charges:
               1
     1  C   -0.407426
     2  C    0.436438
     3  C   -0.254380
     4  C   -0.157407
     5  C    0.208918
     6  C    0.112687
     7  H    0.174786
     8  H    0.164924
     9  H    0.140475
    10  C   -0.110449
    11  H    0.053723
    12  H    0.053754
    13  H    0.037736
    14  F   -0.235161
    15  N   -0.753215
    16  H    0.376305
    17  C    0.992036
    18  O   -0.600001
    19  O   -0.663027
    20  C    0.830862
    21  C   -0.342778
    22  H    0.059639
    23  H    0.078831
    24  H    0.078832
    25  C   -0.355516
    26  H    0.066615
    27  H    0.089559
    28  H    0.061345
    29  C   -0.356151
    30  H    0.066781
    31  H    0.061567
    32  H    0.089698
 Sum of ESP charges =   0.00000

 Summary of Natural Population Analysis:

                                       Natural Population
                Natural  -----------------------------------------------
    Atom  No    Charge         Core      Valence    Rydberg      Total
 -----------------------------------------------------------------------
      C    1   -0.22071      1.99901     4.20678    0.01492     6.22071
      C    2    0.15518      1.99896     3.82660    0.01926     5.84482
      C    3   -0.22792      1.99909     4.21312    0.01572     6.22792
      C    4   -0.24039      1.99906     4.22461    0.01672     6.24039
      C    5    0.38822      1.99833     3.58768    0.02577     5.61178
      C    6   -0.07364      1.99895     4.05956    0.01512     6.07364
      H    7    0.20006      0.00000     0.79797    0.00197     0.79994
      H    8    0.24924      0.00000     0.74885    0.00190     0.75076
      H    9    0.22431      0.00000     0.77403    0.00166     0.77569
      C   10   -0.58814      1.99930     4.57795    0.01089     6.58814
      H   11    0.22006      0.00000     0.77852    0.00141     0.77994
      H   12    0.22007      0.00000     0.77851    0.00141     0.77993
      H   13    0.20421      0.00000     0.79441    0.00138     0.79579
      F   14   -0.36236      1.99993     7.35510    0.00733     9.36236
      N   15   -0.61588      1.99926     5.60206    0.01456     7.61588
      H   16    0.40156      0.00000     0.59494    0.00349     0.59844
      C   17    0.93168      1.99943     3.01941    0.04949     5.06832
      O   18   -0.65065      1.99973     6.64020    0.01072     8.65065
      O   19   -0.60824      1.99970     6.59012    0.01843     8.60824
      C   20    0.27532      1.99911     3.70456    0.02101     5.72468
      C   21   -0.58159      1.99924     4.57021    0.01213     6.58159
      H   22    0.20606      0.00000     0.79286    0.00107     0.79394
      H   23    0.20883      0.00000     0.78978    0.00139     0.79117
      H   24    0.20884      0.00000     0.78978    0.00139     0.79116
      C   25   -0.60602      1.99923     4.59536    0.01142     6.60602
      H   26    0.20624      0.00000     0.79242    0.00134     0.79376
      H   27    0.23115      0.00000     0.76742    0.00143     0.76885
      H   28    0.20656      0.00000     0.79229    0.00115     0.79344
      C   29   -0.60602      1.99923     4.59537    0.01142     6.60602
      H   30    0.20624      0.00000     0.79242    0.00134     0.79376
      H   31    0.20656      0.00000     0.79229    0.00115     0.79344
      H   32    0.23115      0.00000     0.76741    0.00143     0.76885
 =======================================================================
   * Total *    0.00000     31.98757    87.71260    0.29983   120.00000

                      1                      2                      3
                      A                      A                      A
 Frequencies --     23.9724                37.0292                67.9737
 Red. masses --      3.4129                 5.0004                 5.5477
 Frc consts  --      0.0012                 0.0040                 0.0151
 IR Inten    --      0.0054                 0.3930                 4.3823

                      4                      5                      6
                      A                      A                      A
 Frequencies --     81.3376                85.6094               108.0233
 Red. masses --      4.5632                 1.0394                 3.7587
 Frc consts  --      0.0178                 0.0045                 0.0258
 IR Inten    --      0.1932                 0.4687                 0.4332

                      7                      8                      9
                      A                      A                      A
 Frequencies --    161.1332               197.3451               200.7584
 Red. masses --      5.3869                 3.6857                 1.1370
 Frc consts  --      0.0824                 0.0846                 0.0270
 IR Inten    --      0.6647                 4.9509                 0.6834

                     10                     11                     12
                      A                      A                      A
 Frequencies --    210.1007               218.4987               248.2198
 Red. masses --      3.2913                 4.0429                 1.1090
 Frc consts  --      0.0856                 0.1137                 0.0403
 IR Inten    --      1.8477                 0.7938                 0.2803

                     13                     14                     15
                      A                      A                      A
 Frequencies --    269.3331               271.4623               313.5919
 Red. masses --      1.0614                 3.5844                 3.9508
 Frc consts  --      0.0454                 0.1556                 0.2289
 IR Inten    --      0.0689                 4.1921                 1.8553

                     16                     17                     18
                      A                      A                      A
 Frequencies --    337.1043               349.9943               376.0330
 Red. masses --      5.1695                 2.5497                 6.7928
 Frc consts  --      0.3461                 0.1840                 0.5659
 IR Inten    --     14.8403                 1.0939                 0.0996

                     19                     20                     21
                      A                      A                      A
 Frequencies --    416.5506               443.4571               448.7006
 Red. masses --      3.0707                 3.1366                 2.9077
 Frc consts  --      0.3139                 0.3634                 0.3449
 IR Inten    --      2.3172                11.0324                 1.2133

                     22                     23                     24
                      A                      A                      A
 Frequencies --    457.1512               470.2143               546.0226
 Red. masses --      2.8870                 3.5017                 1.1274
 Frc consts  --      0.3555                 0.4562                 0.1980
 IR Inten    --      3.4258                 0.7250                67.2443

                     25                     26                     27
                      A                      A                      A
 Frequencies --    556.8885               584.0282               592.0297
 Red. masses --      4.6365                 3.1614                 5.6758
 Frc consts  --      0.8472                 0.6353                 1.1721
 IR Inten    --      0.7172                 5.7950                 4.0690

                     28                     29                     30
                      A                      A                      A
 Frequencies --    713.7643               720.3810               756.5879
 Red. masses --      3.5981                 5.6091                 6.0753
 Frc consts  --      1.0800                 1.7150                 2.0490
 IR Inten    --      2.1447                25.2912                10.9925

                     31                     32                     33
                      A                      A                      A
 Frequencies --    769.4259               781.3539               805.8077
 Red. masses --     11.4241                 5.8608                 3.6111
 Frc consts  --      3.9848                 2.1081                 1.3815
 IR Inten    --     15.4644                27.7128                12.2236

                     34                     35                     36
                      A                      A                      A
 Frequencies --    844.4871               867.8851               890.5235
 Red. masses --      1.3666                 1.5001                 4.7580
 Frc consts  --      0.5742                 0.6657                 2.2231
 IR Inten    --     18.7508                37.3901                27.4224

                     37                     38                     39
                      A                      A                      A
 Frequencies --    924.4307               927.5905               946.0565
 Red. masses --      1.6425                 1.6390                 4.2858
 Frc consts  --      0.8270                 0.8309                 2.2600
 IR Inten    --      0.0213                 0.0533                 3.9943

                     40                     41                     42
                      A                      A                      A
 Frequencies --    970.2851               972.2385              1009.2584
 Red. masses --      1.2963                 1.2004                 1.7030
 Frc consts  --      0.7190                 0.6685                 1.0220
 IR Inten    --      0.1100                 0.0829                36.1133

                     43                     44                     45
                      A                      A                      A
 Frequencies --   1053.1482              1053.4177              1059.8238
 Red. masses --      1.4107                 1.5105                 1.4928
 Frc consts  --      0.9219                 0.9876                 0.9879
 IR Inten    --      0.6870                 3.2958                 1.5604

                     46                     47                     48
                      A                      A                      A
 Frequencies --   1080.5569              1135.4221              1177.9133
 Red. masses --      3.0383                 1.8809                 2.3371
 Frc consts  --      2.0901                 1.4287                 1.9106
 IR Inten    --    122.0923                94.6009               717.5210

                     49                     50                     51
                      A                      A                      A
 Frequencies --   1185.4994              1230.2152              1240.2589
 Red. masses --      1.8788                 2.1311                 2.6674
 Frc consts  --      1.5557                 1.9003                 2.4175
 IR Inten    --     83.0118               156.7766                85.0144

                     52                     53                     54
                      A                      A                      A
 Frequencies --   1264.6111              1277.7353              1282.1305
 Red. masses --      2.7439                 2.4744                 2.4295
 Frc consts  --      2.5854                 2.3802                 2.3531
 IR Inten    --     15.5112                19.3685                31.4771

                     55                     56                     57
                      A                      A                      A
 Frequencies --   1312.4522              1345.1844              1402.0961
 Red. masses --      2.3603                 5.7762                 1.2665
 Frc consts  --      2.3955                 6.1582                 1.4669
 IR Inten    --      9.9344                58.7002                21.5899

                     58                     59                     60
                      A                      A                      A
 Frequencies --   1404.0674              1417.9880              1424.8503
 Red. masses --      1.2789                 1.2554                 2.9428
 Frc consts  --      1.4854                 1.4872                 3.5201
 IR Inten    --     21.0360                 0.9478                95.4757

                     61                     62                     63
                      A                      A                      A
 Frequencies --   1430.1863              1471.6426              1480.5677
 Red. masses --      1.2357                 1.0447                 1.0426
 Frc consts  --      1.4892                 1.3331                 1.3466
 IR Inten    --     20.9501                 0.3919                 7.3024

                     64                     65                     66
                      A                      A                      A
 Frequencies --   1490.3643              1491.7463              1492.0805
 Red. masses --      1.0456                 1.0489                 1.2066
 Frc consts  --      1.3684                 1.3753                 1.5827
 IR Inten    --      0.4608                 0.6630                47.8373

                     67                     68                     69
                      A                      A                      A
 Frequencies --   1498.1410              1504.1806              1526.0038
 Red. masses --      1.0664                 1.0544                 1.0565
 Frc consts  --      1.4102                 1.4055                 1.4495
 IR Inten    --     15.9205                 2.6343                 7.4625

                     70                     71                     72
                      A                      A                      A
 Frequencies --   1535.9113              1561.3551              1635.4204
 Red. masses --      2.5398                 2.1834                 5.8268
 Frc consts  --      3.5300                 3.1361                 9.1821
 IR Inten    --    267.9160               541.9183                 0.1545

                     73                     74                     75
                      A                      A                      A
 Frequencies --   1658.4613              1773.4274              3032.5846
 Red. masses --      6.4782                 9.8839                 1.0359
 Frc consts  --     10.4983                18.3150                 5.6130
 IR Inten    --     44.3359               268.4901                26.2897

                     76                     77                     78
                      A                      A                      A
 Frequencies --   3034.1971              3034.6183              3042.5738
 Red. masses --      1.0355                 1.0378                 1.0376
 Frc consts  --      5.6168                 5.6307                 5.6592
 IR Inten    --      8.8079                24.4899                25.1929

                     79                     80                     81
                      A                      A                      A
 Frequencies --   3083.1728              3093.8202              3095.8775
 Red. masses --      1.1003                 1.1019                 1.1017
 Frc consts  --      6.1625                 6.2142                 6.2215
 IR Inten    --     11.6879                 7.3347                18.2356

                     82                     83                     84
                      A                      A                      A
 Frequencies --   3109.0292              3109.8825              3110.1568
 Red. masses --      1.1028                 1.1017                 1.1021
 Frc consts  --      6.2806                 6.2777                 6.2814
 IR Inten    --     29.7574                47.0640                13.6397

                     85                     86                     87
                      A                      A                      A
 Frequencies --   3137.7519              3140.8736              3147.7389
 Red. masses --      1.0998                 1.0992                 1.0900
 Frc consts  --      6.3795                 6.3888                 6.3632
 IR Inten    --      0.4725                13.3621                13.3458

                     88                     89                     90
                      A                      A                      A
 Frequencies --   3195.0281              3243.4884              3628.2850
 Red. masses --      1.0913                 1.0926                 1.0765
 Frc consts  --      6.5638                 6.7722                 8.3499
 IR Inten    --      3.0165                 6.7793                32.7206

 - Thermochemistry -
 -------------------
 Temperature   298.150 Kelvin.  Pressure   1.00000 Atm.
 Atom     1 has atomic number  6 and mass  12.00000

 Molecular mass:   225.11651 amu.
 Principal axes and moments of inertia in atomic units:
                           1         2         3
     Eigenvalues --  1128.886419131.454769844.32561
           X            0.99995   0.01018   0.00000
           Y           -0.01018   0.99995  -0.00001
           Z            0.00000   0.00001   1.00000
 This molecule is an asymmetric top.
 Rotational symmetry number  1.
 Warning -- assumption of classical behavior for rotation
           may cause significant error
 Rotational temperatures (Kelvin)      0.07673     0.00949     0.00880
 Rotational constants (GHZ):           1.59869     0.19764     0.18333
 Zero-point vibrational energy     688502.2 (Joules/Mol)
                                  164.55597 (Kcal/Mol)
 Warning -- explicit consideration of  27 degrees of freedom as
           vibrations may cause significant error
 Vibrational temperatures:     34.49    53.28    97.80   117.03   123.17
          (Kelvin)            155.42   231.83   283.94   288.85   302.29
                              314.37   357.13   387.51   390.57   451.19
                              485.02   503.56   541.03   599.32   638.03
                              645.58   657.74   676.53   785.60   801.24
                              840.29   851.80  1026.95  1036.47  1088.56
                             1107.03  1124.19  1159.38  1215.03  1248.69
                             1281.26  1330.05  1334.59  1361.16  1396.02
                             1398.83  1452.10  1515.24  1515.63  1524.85
                             1554.68  1633.62  1694.75  1705.67  1770.00
                             1784.45  1819.49  1838.37  1844.70  1888.32
                             1935.42  2017.30  2020.14  2040.17  2050.04
                             2057.72  2117.36  2130.20  2144.30  2146.29
                             2146.77  2155.49  2164.18  2195.58  2209.83
                             2246.44  2353.00  2386.15  2551.56  4363.21
                             4365.53  4366.13  4377.58  4435.99  4451.31
                             4454.27  4473.19  4474.42  4474.82  4514.52
                             4519.01  4528.89  4596.93  4666.65  5220.29

 Zero-point correction=                           0.262237 (Hartree/Particle)
 Thermal correction to Energy=                    0.278969
 Thermal correction to Enthalpy=                  0.279914
 Thermal correction to Gibbs Free Energy=         0.217179
 Sum of electronic and zero-point Energies=           -771.955527
 Sum of electronic and thermal Energies=              -771.938794
 Sum of electronic and thermal Enthalpies=            -771.937850
 Sum of electronic and thermal Free Energies=         -772.000584

                     E (Thermal)             CV                S
                      KCal/Mol        Cal/Mol-Kelvin    Cal/Mol-Kelvin
 Total                  175.056             62.723            132.035
 Electronic               0.000              0.000              0.000
 Translational            0.889              2.981             42.137
 Rotational               0.889              2.981             32.984
 Vibrational            173.278             56.761             56.915
 Vibration     1          0.593              1.985              6.275
 Vibration     2          0.594              1.982              5.412
 Vibration     3          0.598              1.969              4.211
 Vibration     4          0.600              1.962              3.858
 Vibration     5          0.601              1.959              3.758
 Vibration     6          0.606              1.943              3.304
 Vibration     7          0.622              1.890              2.536
 Vibration     8          0.637              1.844              2.158
 Vibration     9          0.638              1.839              2.126
 Vibration    10          0.642              1.825              2.043
 Vibration    11          0.646              1.813              1.972
 Vibration    12          0.662              1.766              1.743
 Vibration    13          0.674              1.730              1.600
 Vibration    14          0.675              1.726              1.587
 Vibration    15          0.701              1.648              1.343
 Vibration    16          0.718              1.601              1.226
 Vibration    17          0.727              1.575              1.166
 Vibration    18          0.747              1.521              1.055
 Vibration    19          0.780              1.434              0.904
 Vibration    20          0.803              1.375              0.816
 Vibration    21          0.808              1.364              0.800
 Vibration    22          0.815              1.345              0.774
 Vibration    23          0.827              1.316              0.737
 Vibration    24          0.901              1.148              0.552
 Vibration    25          0.912              1.125              0.530
 Vibration    26          0.941              1.066              0.478
 Vibration    27          0.950              1.049              0.464

 Optimization completed.
    -- Stationary point found.
 Normal termination of Gaussian 09 at Tue Apr 23 15:07:36 2024.
