 Gaussian 09, Revision D.01,
 Gaussian 09:  ES64L-G09RevD.01 24-Apr-2013

 ----------------------------------------------------------------------
 # opt freq b3lyp/6-311+g(d,p) geom=connectivity pop=(hirshfeld,mbs,npa
 ,chelpg)
 ----------------------------------------------------------------------

 --------
 Chart5_6
 --------
 Symbolic Z-matrix:
 Charge =  0 Multiplicity = 1

 SCF Done:  E(RB3LYP) =  -350.278543656     A.U. after   14 cycles
 SCF Done:  E(RB3LYP) =  -350.284907571     A.U. after   12 cycles
 SCF Done:  E(RB3LYP) =  -350.285697386     A.U. after   11 cycles
 SCF Done:  E(RB3LYP) =  -350.285931900     A.U. after   12 cycles
 SCF Done:  E(RB3LYP) =  -350.286170845     A.U. after   12 cycles
 SCF Done:  E(RB3LYP) =  -350.285915245     A.U. after   13 cycles
 SCF Done:  E(RB3LYP) =  -350.286242414     A.U. after   13 cycles
 SCF Done:  E(RB3LYP) =  -350.286280307     A.U. after   10 cycles
 SCF Done:  E(RB3LYP) =  -350.286303322     A.U. after   10 cycles
 SCF Done:  E(RB3LYP) =  -350.286302344     A.U. after   10 cycles
 SCF Done:  E(RB3LYP) =  -350.286302866     A.U. after    9 cycles
 SCF Done:  E(RB3LYP) =  -350.286302899     A.U. after    8 cycles
 Optimization completed.
    -- Stationary point found.
 Normal termination of Gaussian 09 at Mon Aug  2 15:41:39 2021.

 ----------------------------------------------------------------------
 #N Geom=AllCheck Guess=TCheck SCRF=Check GenChk RB3LYP/6-311+G(d,p) Fr
 eq
 ----------------------------------------------------------------------

 Structure from the checkpoint file:  "//home/sweav003/CHB/CHActivation_Mkhalid/OtherCharges/G09-Chart5_6.com.o9486480.tmp/Gau-43760.chk"
 --------
 Chart5_6
 --------
 Charge =  0 Multiplicity = 1

                         Standard orientation:
 ---------------------------------------------------------------------
 Center     Atomic      Atomic             Coordinates (Angstroms)
 Number     Number       Type             X           Y           Z
 ---------------------------------------------------------------------
      1          6           0        2.652202    0.213908   -0.000113
      2          6           0        2.131034   -1.077457    0.000304
      3          6           0        0.750114   -1.274642    0.000444
      4          6           0       -0.137061   -0.193440    0.000172
      5          6           0        0.402959    1.099430   -0.000221
      6          6           0        1.780843    1.302969   -0.000376
      7          1           0        3.724871    0.371629   -0.000202
      8          1           0        2.797406   -1.933259    0.000540
      9          1           0        0.354604   -2.285753    0.000787
     10          1           0       -0.257089    1.960515   -0.000441
     11          1           0        2.175342    2.313346   -0.000672
     12          6           0       -1.641425   -0.426568    0.000217
     13          6           0       -2.310894    0.131978    1.269194
     14          1           0       -1.792902   -1.512075    0.000837
     15          1           0       -3.379183   -0.104722    1.276394
     16          1           0       -1.862118   -0.290358    2.171875
     17          1           0       -2.211701    1.220151    1.324820
     18          6           0       -2.310643    0.130595   -1.269508
     19          1           0       -1.861815   -0.292883   -2.171625
     20          1           0       -3.378977   -0.105911   -1.276590
     21          1           0       -2.211205    1.218688   -1.326397
 ---------------------------------------------------------------------

 SCF Done:  E(RB3LYP) =  -350.286302899     A.U. after    1 cycles

 The electronic state is 1-A.
 Alpha  occ. eigenvalues --  -10.18261 -10.18101 -10.17533 -10.17494 -10.17319
 Alpha  occ. eigenvalues --  -10.17289 -10.17270 -10.16118 -10.16118  -0.86215
 Alpha  occ. eigenvalues --   -0.80427  -0.74776  -0.73337  -0.68737  -0.62379
 Alpha  occ. eigenvalues --   -0.60700  -0.56663  -0.51450  -0.47357  -0.45748
 Alpha  occ. eigenvalues --   -0.43814  -0.43164  -0.42050  -0.41768  -0.39044
 Alpha  occ. eigenvalues --   -0.38147  -0.36480  -0.35342  -0.34387  -0.33016
 Alpha  occ. eigenvalues --   -0.32770  -0.25629  -0.24797
 Alpha virt. eigenvalues --   -0.01525  -0.01212  -0.00004   0.01408   0.01716
 Alpha virt. eigenvalues --    0.02907   0.03782   0.03895   0.04753   0.05973
 Alpha virt. eigenvalues --    0.06257   0.06697   0.06956   0.07206   0.09415

 Mulliken charges:
               1
     1  C   -0.082579
     2  C   -0.252177
     3  C   -0.374786
     4  C    0.496633
     5  C   -0.211004
     6  C   -0.241293
     7  H    0.123180
     8  H    0.123067
     9  H    0.111789
    10  H    0.112808
    11  H    0.123218
    12  C    0.246474
    13  C   -0.551810
    14  H    0.111967
    15  H    0.132479
    16  H    0.141264
    17  H    0.134431
    18  C   -0.551842
    19  H    0.141256
    20  H    0.132474
    21  H    0.134452
 Sum of Mulliken charges =   0.00000

 Dipole moment (field-independent basis, Debye):
    X=             -0.3722    Y=             -0.0797    Z=              0.0000  Tot=              0.3806
 Quadrupole moment (field-independent basis, Debye-Ang):
   XX=            -52.9056   YY=            -52.5802   ZZ=            -60.2902
   XY=              0.3227   XZ=             -0.0004   YZ=             -0.0024

  Exact polarizability: 131.598  -0.132 104.865  -0.001  -0.007  77.112
 Approx polarizability: 185.200  -0.051 176.503  -0.003  -0.020 109.196

 ESP charges:
               1
     1  C   -0.130801
     2  C   -0.042966
     3  C   -0.201092
     4  C    0.165173
     5  C   -0.215613
     6  C   -0.044110
     7  H    0.090383
     8  H    0.080092
     9  H    0.090409
    10  H    0.122244
    11  H    0.076153
    12  C    0.135966
    13  C   -0.129981
    14  H    0.005356
    15  H    0.040519
    16  H   -0.001704
    17  H    0.025558
    18  C   -0.129818
    19  H   -0.001687
    20  H    0.040470
    21  H    0.025447
 Sum of ESP charges =   0.00000

 Summary of Natural Population Analysis:

                                       Natural Population
                Natural  -----------------------------------------------
    Atom  No    Charge         Core      Valence    Rydberg      Total
 -----------------------------------------------------------------------
      C    1   -0.21369      1.99915     4.19620    0.01833     6.21369
      C    2   -0.19790      1.99916     4.18033    0.01841     6.19790
      C    3   -0.20503      1.99904     4.18913    0.01685     6.20503
      C    4   -0.01934      1.99900     3.99948    0.02087     6.01934
      C    5   -0.20789      1.99904     4.19239    0.01646     6.20789
      C    6   -0.19747      1.99916     4.17980    0.01850     6.19747
      H    7    0.20520      0.00000     0.79340    0.00140     0.79480
      H    8    0.20465      0.00000     0.79384    0.00151     0.79535
      H    9    0.20229      0.00000     0.79596    0.00176     0.79771
      H   10    0.20254      0.00000     0.79572    0.00174     0.79746
      H   11    0.20415      0.00000     0.79433    0.00152     0.79585
      C   12   -0.23950      1.99918     4.22426    0.01605     6.23950
      C   13   -0.56362      1.99934     4.55478    0.00951     6.56362
      H   14    0.19242      0.00000     0.80446    0.00312     0.80758
      H   15    0.19865      0.00000     0.80007    0.00127     0.80135
      H   16    0.20505      0.00000     0.79389    0.00106     0.79495
      H   17    0.19470      0.00000     0.80389    0.00141     0.80530
      C   18   -0.56362      1.99934     4.55477    0.00951     6.56362
      H   19    0.20505      0.00000     0.79389    0.00106     0.79495
      H   20    0.19865      0.00000     0.80007    0.00127     0.80135
      H   21    0.19470      0.00000     0.80388    0.00141     0.80530
 =======================================================================
   * Total *    0.00000     17.99242    47.84455    0.16304    66.00000

                      1                      2                      3
                      A                      A                      A
 Frequencies --     40.2513               125.9150               206.2553
 Red. masses --      2.9485                 3.0477                 2.1110
 Frc consts  --      0.0028                 0.0285                 0.0529
 IR Inten    --      0.0033                 0.6407                 0.0912

                      4                      5                      6
                      A                      A                      A
 Frequencies --    225.3869               259.0985               305.3368
 Red. masses --      1.0431                 1.2133                 2.6974
 Frc consts  --      0.0312                 0.0480                 0.1482
 IR Inten    --      0.0004                 0.1165                 0.0559

                      7                      8                      9
                      A                      A                      A
 Frequencies --    317.4176               413.4881               462.7239
 Red. masses --      3.1910                 2.8817                 2.8863
 Frc consts  --      0.1894                 0.2903                 0.3641
 IR Inten    --      0.1574                 0.0235                 0.2617

                     10                     11                     12
                      A                      A                      A
 Frequencies --    547.0876               567.4734               634.8932
 Red. masses --      2.8635                 2.9523                 6.3857
 Frc consts  --      0.5050                 0.5601                 1.5166
 IR Inten    --     15.5747                 0.1781                 0.0165

                     13                     14                     15
                      A                      A                      A
 Frequencies --    712.5627               750.6483               777.6560
 Red. masses --      1.6498                 3.7760                 1.9786
 Frc consts  --      0.4936                 1.2536                 0.7050
 IR Inten    --     47.6960                 1.1291                28.3858

                     16                     17                     18
                      A                      A                      A
 Frequencies --    854.4632               895.3332               924.4587
 Red. masses --      1.2493                 2.5571                 1.3681
 Frc consts  --      0.5374                 1.2077                 0.6889
 IR Inten    --      0.0010                 0.5881                 0.7413

                     19                     20                     21
                      A                      A                      A
 Frequencies --    931.8873               960.5191               983.3320
 Red. masses --      1.2183                 1.5238                 1.3716
 Frc consts  --      0.6233                 0.8283                 0.7814
 IR Inten    --      1.5526                 0.0189                 0.0135

                     22                     23                     24
                      A                      A                      A
 Frequencies --   1002.2825              1015.9714              1046.8446
 Red. masses --      1.2833                 5.9342                 2.3563
 Frc consts  --      0.7596                 3.6089                 1.5214
 IR Inten    --      0.0678                 0.1032                10.3385

                     25                     26                     27
                      A                      A                      A
 Frequencies --   1069.3903              1105.6834              1119.8251
 Red. masses --      1.5828                 1.5867                 2.3568
 Frc consts  --      1.0665                 1.1429                 1.7413
 IR Inten    --      6.2333                 8.0982                 1.2555

                     28                     29                     30
                      A                      A                      A
 Frequencies --   1169.2455              1181.1846              1203.9843
 Red. masses --      1.9003                 1.1106                 1.1315
 Frc consts  --      1.5307                 0.9129                 0.9663
 IR Inten    --      0.4486                 0.1002                 0.0876

                     31                     32                     33
                      A                      A                      A
 Frequencies --   1230.3746              1306.6980              1343.4423
 Red. masses --      2.1331                 2.7266                 1.3173
 Frc consts  --      1.9026                 2.7429                 1.4008
 IR Inten    --      1.2739                 4.0500                 2.1382

                     34                     35                     36
                      A                      A                      A
 Frequencies --   1347.8761              1383.3779              1397.6441
 Red. masses --      2.2120                 1.3664                 1.2170
 Frc consts  --      2.3677                 1.5407                 1.4007
 IR Inten    --      1.0683                 2.1278                 6.3990

                     37                     38                     39
                      A                      A                      A
 Frequencies --   1418.5745              1482.4959              1487.3549
 Red. masses --      1.2188                 2.0911                 1.0424
 Frc consts  --      1.4451                 2.7077                 1.3587
 IR Inten    --      4.1637                 7.0906                 0.1064

                     40                     41                     42
                      A                      A                      A
 Frequencies --   1489.8025              1501.8773              1507.0817
 Red. masses --      1.0479                 1.0520                 1.0990
 Frc consts  --      1.3703                 1.3981                 1.4707
 IR Inten    --      3.0453                11.0284                 3.7104

                     43                     44                     45
                      A                      A                      A
 Frequencies --   1526.2749              1621.7125              1642.2208
 Red. masses --      2.0462                 5.3963                 5.5807
 Frc consts  --      2.8085                 8.3616                 8.8675
 IR Inten    --     14.9463                 0.9463                 7.3083

                     46                     47                     48
                      A                      A                      A
 Frequencies --   3015.2871              3018.5558              3023.0293
 Red. masses --      1.0838                 1.0346                 1.0354
 Frc consts  --      5.8057                 5.5539                 5.5749
 IR Inten    --     13.2448                27.2139                33.2066

                     49                     50                     51
                      A                      A                      A
 Frequencies --   3078.3436              3085.3920              3091.3091
 Red. masses --      1.1021                 1.1010                 1.1021
 Frc consts  --      6.1531                 6.1756                 6.2052
 IR Inten    --      0.0082                81.8974                22.3108

                     52                     53                     54
                      A                      A                      A
 Frequencies --   3093.5216              3152.7353              3156.9872
 Red. masses --      1.1016                 1.0858                 1.0865
 Frc consts  --      6.2111                 6.3588                 6.3802
 IR Inten    --     33.4581                 8.3763                 2.7322

                     55                     56                     57
                      A                      A                      A
 Frequencies --   3167.5811              3175.2154              3187.4505
 Red. masses --      1.0900                 1.0939                 1.0979
 Frc consts  --      6.4436                 6.4980                 6.5721
 IR Inten    --      8.1236                36.9522                15.9318

 - Thermochemistry -
 -------------------
 Temperature   298.150 Kelvin.  Pressure   1.00000 Atm.
 Atom     1 has atomic number  6 and mass  12.00000

 Molecular mass:   120.09390 amu.
 Principal axes and moments of inertia in atomic units:
                           1         2         3
     Eigenvalues --   538.625311681.258341827.04344
           X            0.99999  -0.00381   0.00000
           Y            0.00381   0.99999   0.00001
           Z            0.00000  -0.00001   1.00000
 This molecule is an asymmetric top.
 Rotational symmetry number  1.
 Warning -- assumption of classical behavior for rotation
           may cause significant error
 Rotational temperatures (Kelvin)      0.16081     0.05152     0.04741
 Rotational constants (GHZ):           3.35064     1.07345     0.98779
 Zero-point vibrational energy     482949.3 (Joules/Mol)
                                  115.42765 (Kcal/Mol)
 Warning -- explicit consideration of  11 degrees of freedom as
           vibrations may cause significant error
 Vibrational temperatures:     57.91   181.16   296.76   324.28   372.78
          (Kelvin)            439.31   456.69   594.92   665.76   787.14
                              816.47   913.47  1025.22  1080.01  1118.87
                             1229.38  1288.18  1330.09  1340.78  1381.97
                             1414.79  1442.06  1461.75  1506.17  1538.61
                             1590.83  1611.18  1682.28  1699.46  1732.26
                             1770.23  1880.04  1932.91  1939.29  1990.37
                             2010.90  2041.01  2132.98  2139.97  2143.49
                             2160.86  2168.35  2195.97  2333.28  2362.79
                             4338.32  4343.02  4349.46  4429.04  4439.19
                             4447.70  4450.88  4536.08  4542.19  4557.44
                             4568.42  4586.02

 Zero-point correction=                           0.183946 (Hartree/Particle)
 Thermal correction to Energy=                    0.192659
 Thermal correction to Enthalpy=                  0.193603
 Thermal correction to Gibbs Free Energy=         0.150237
 Sum of electronic and zero-point Energies=           -350.102357
 Sum of electronic and thermal Energies=              -350.093644
 Sum of electronic and thermal Enthalpies=            -350.092700
 Sum of electronic and thermal Free Energies=         -350.136066

                     E (Thermal)             CV                S
                      KCal/Mol        Cal/Mol-Kelvin    Cal/Mol-Kelvin
 Total                  120.895             33.584             91.272
 Electronic               0.000              0.000              0.000
 Translational            0.889              2.981             40.264
 Rotational               0.889              2.981             28.894
 Vibrational            119.118             27.622             22.114
 Vibration     1          0.594              1.981              5.247
 Vibration     2          0.611              1.927              3.008
 Vibration     3          0.641              1.831              2.077
 Vibration     4          0.650              1.802              1.915
 Vibration     5          0.668              1.747              1.668
 Vibration     6          0.696              1.664              1.387
 Vibration     7          0.704              1.640              1.323
 Vibration     8          0.777              1.441              0.914
 Vibration     9          0.820              1.333              0.758
 Vibration    10          0.902              1.146              0.550
 Vibration    11          0.923              1.102              0.509

 Optimization completed.
    -- Stationary point found.
 Normal termination of Gaussian 09 at Mon Aug  2 15:43:32 2021.
