 Gaussian 09, Revision D.01,
 Gaussian 09:  ES64L-G09RevD.01 24-Apr-2013

 ----------------------------------------------------------------------
 # opt freq b3lyp/6-311+g(d,p) geom=connectivity pop=(hirshfeld,chelpg,
 mbs,npa)
 ----------------------------------------------------------------------

 --------
 Table4_2
 --------
 Symbolic Z-matrix:
 Charge =  0 Multiplicity = 1

 SCF Done:  E(RB3LYP) =  -574.785911356     A.U. after   16 cycles
 SCF Done:  E(RB3LYP) =  -574.806566465     A.U. after   14 cycles
 SCF Done:  E(RB3LYP) =  -574.810076669     A.U. after   14 cycles
 SCF Done:  E(RB3LYP) =  -574.806886784     A.U. after   13 cycles
 SCF Done:  E(RB3LYP) =  -574.810164628     A.U. after    9 cycles
 SCF Done:  E(RB3LYP) =  -574.810264913     A.U. after   12 cycles
 SCF Done:  E(RB3LYP) =  -574.810332657     A.U. after   11 cycles
 SCF Done:  E(RB3LYP) =  -574.810361914     A.U. after   11 cycles
 SCF Done:  E(RB3LYP) =  -574.810391544     A.U. after   12 cycles
 SCF Done:  E(RB3LYP) =  -574.810411796     A.U. after   11 cycles
 SCF Done:  E(RB3LYP) =  -574.816275354     A.U. after    9 cycles
 SCF Done:  E(RB3LYP) =  -574.815528336     A.U. after   14 cycles
 SCF Done:  E(RB3LYP) =  -574.816388829     A.U. after   10 cycles
 SCF Done:  E(RB3LYP) =  -574.816447954     A.U. after   12 cycles
 SCF Done:  E(RB3LYP) =  -574.816473150     A.U. after   11 cycles
 SCF Done:  E(RB3LYP) =  -574.816480044     A.U. after   10 cycles
 SCF Done:  E(RB3LYP) =  -574.816481460     A.U. after    9 cycles
 SCF Done:  E(RB3LYP) =  -574.816481567     A.U. after    8 cycles
 SCF Done:  E(RB3LYP) =  -574.816481605     A.U. after    8 cycles
 Optimization completed.
    -- Stationary point found.
 Normal termination of Gaussian 09 at Wed Nov 17 15:28:32 2021.

 ----------------------------------------------------------------------
 #N Geom=AllCheck Guess=TCheck SCRF=Check GenChk RB3LYP/6-311+G(d,p) Fr
 eq
 ----------------------------------------------------------------------

 Structure from the checkpoint file:  "Table4_2.chk"
 --------
 Table4_2
 --------
 Charge =  0 Multiplicity = 1

                         Standard orientation:
 ---------------------------------------------------------------------
 Center     Atomic      Atomic             Coordinates (Angstroms)
 Number     Number       Type             X           Y           Z
 ---------------------------------------------------------------------
      1          6           0        2.099222   -0.317864    0.000028
      2          6           0        1.210862   -1.403347   -0.000015
      3          6           0       -0.155086   -1.183777    0.000023
      4          6           0       -0.667593    0.123522    0.000034
      5          6           0        0.224311    1.197960    0.000085
      6          6           0        1.599873    0.990051    0.000098
      7          1           0        1.619476   -2.406466   -0.000038
      8          1           0       -0.837120   -2.023698   -0.000004
      9          1           0       -0.174395    2.205071    0.000117
     10          1           0        2.265427    1.842335    0.000154
     11          6           0       -2.121979    0.415794   -0.000011
     12          8           0       -2.604727    1.527119   -0.000113
     13          8           0       -2.876606   -0.708930    0.000080
     14          8           0        3.419888   -0.637097   -0.000034
     15          6           0        4.382433    0.411897   -0.000070
     16          1           0        5.353839   -0.079091   -0.000179
     17          1           0        4.290700    1.036182   -0.894778
     18          1           0        4.290846    1.036109    0.894689
     19          6           0       -4.299865   -0.508038   -0.000040
     20          1           0       -4.733817   -1.505810    0.000134
     21          1           0       -4.608271    0.044912    0.888419
     22          1           0       -4.608182    0.044532   -0.888772
 ---------------------------------------------------------------------

 SCF Done:  E(RB3LYP) =  -574.816481605     A.U. after    1 cycles

 The electronic state is 1-A.
 Alpha  occ. eigenvalues --  -19.17029 -19.16812 -19.10753 -10.30087 -10.25247
 Alpha  occ. eigenvalues --  -10.23755 -10.22546 -10.19017 -10.18977 -10.18903
 Alpha  occ. eigenvalues --  -10.18627 -10.18196  -1.10780  -1.08597  -1.01926
 Alpha  occ. eigenvalues --   -0.87179  -0.78590  -0.76719  -0.73663  -0.70986
 Alpha  occ. eigenvalues --   -0.62840  -0.62323  -0.57318  -0.55342  -0.52934
 Alpha  occ. eigenvalues --   -0.50112  -0.48675  -0.48500  -0.47211  -0.46132
 Alpha  occ. eigenvalues --   -0.44395  -0.43813  -0.42688  -0.41197  -0.39916
 Alpha  occ. eigenvalues --   -0.38931  -0.37684  -0.36239  -0.34228  -0.33560
 Alpha  occ. eigenvalues --   -0.31010  -0.28281  -0.27063  -0.24078
 Alpha virt. eigenvalues --   -0.04881  -0.02416  -0.00282   0.00830   0.01935
 Alpha virt. eigenvalues --    0.02281   0.03177   0.03593   0.04103   0.04832
 Alpha virt. eigenvalues --    0.04895   0.05228   0.05640   0.07145   0.07701

 Mulliken charges:
               1
     1  C   -0.441467
     2  C   -0.144848
     3  C   -0.432970
     4  C    0.503117
     5  C   -0.140541
     6  C    0.044889
     7  H    0.130000
     8  H    0.144396
     9  H    0.148686
    10  H    0.125982
    11  C    0.160930
    12  O   -0.298297
    13  O   -0.150908
    14  O   -0.179246
    15  C   -0.247023
    16  H    0.161459
    17  H    0.148616
    18  H    0.148616
    19  C   -0.147843
    20  H    0.150663
    21  H    0.157896
    22  H    0.157892
 Sum of Mulliken charges =   0.00000

 Dipole moment (field-independent basis, Debye):
    X=              1.8731    Y=             -0.6696    Z=              0.0000  Tot=              1.9891
 Quadrupole moment (field-independent basis, Debye-Ang):
   XX=            -54.4444   YY=            -71.5700   ZZ=            -72.6099
   XY=             11.9324   XZ=             -0.0002   YZ=              0.0009

  Exact polarizability: 178.220   0.407 114.353   0.001   0.000  70.295
 Approx polarizability: 234.491  -8.699 196.276   0.001   0.000 105.184

 ESP charges:
               1
     1  C    0.488222
     2  C   -0.304429
     3  C    0.024568
     4  C   -0.209973
     5  C   -0.002634
     6  C   -0.289331
     7  H    0.144012
     8  H    0.070892
     9  H    0.092281
    10  H    0.136299
    11  C    0.733362
    12  O   -0.552593
    13  O   -0.374087
    14  O   -0.436204
    15  C    0.202416
    16  H    0.046662
    17  H    0.002569
    18  H    0.002580
    19  C    0.042228
    20  H    0.064870
    21  H    0.059086
    22  H    0.059204
 Sum of ESP charges =   0.00000

 Summary of Natural Population Analysis:

                                       Natural Population
                Natural  -----------------------------------------------
    Atom  No    Charge         Core      Valence    Rydberg      Total
 -----------------------------------------------------------------------
      C    1    0.34651      1.99880     3.63146    0.02323     5.65349
      C    2   -0.24500      1.99907     4.22842    0.01751     6.24500
      C    3   -0.14558      1.99911     4.13028    0.01619     6.14558
      C    4   -0.19089      1.99890     4.17361    0.01838     6.19089
      C    5   -0.13170      1.99911     4.11490    0.01769     6.13170
      C    6   -0.29631      1.99906     4.28204    0.01521     6.29631
      H    7    0.22190      0.00000     0.77630    0.00180     0.77810
      H    8    0.22650      0.00000     0.77192    0.00157     0.77350
      H    9    0.23041      0.00000     0.76786    0.00172     0.76959
      H   10    0.21485      0.00000     0.78336    0.00179     0.78515
      C   11    0.79632      1.99927     3.15697    0.04744     5.20368
      O   12   -0.60937      1.99975     6.59819    0.01143     8.60937
      O   13   -0.55825      1.99973     6.54396    0.01457     8.55825
      O   14   -0.53489      1.99971     6.51723    0.01796     8.53489
      C   15   -0.20927      1.99926     4.19447    0.01554     6.20927
      H   16    0.19438      0.00000     0.80457    0.00105     0.80562
      H   17    0.17292      0.00000     0.82489    0.00219     0.82708
      H   18    0.17292      0.00000     0.82489    0.00219     0.82708
      C   19   -0.21276      1.99925     4.19744    0.01607     6.21276
      H   20    0.18479      0.00000     0.81405    0.00116     0.81521
      H   21    0.18625      0.00000     0.81189    0.00186     0.81375
      H   22    0.18625      0.00000     0.81189    0.00186     0.81375
 =======================================================================
   * Total *    0.00000     23.99102    63.76058    0.24841    88.00000

                      1                      2                      3
                      A                      A                      A
 Frequencies --     48.5316                73.3983               104.7827
 Red. masses --      3.7969                 3.9307                 2.9671
 Frc consts  --      0.0053                 0.0125                 0.0192
 IR Inten    --      4.3176                 0.0000                 0.3962

                      4                      5                      6
                      A                      A                      A
 Frequencies --    132.1819               132.8313               167.5620
 Red. masses --      1.2824                 4.1597                 2.9158
 Frc consts  --      0.0132                 0.0432                 0.0482
 IR Inten    --      1.5247                 2.5984                 6.7651

                      7                      8                      9
                      A                      A                      A
 Frequencies --    225.0328               236.4605               316.7785
 Red. masses --      1.1944                 3.5566                 4.9319
 Frc consts  --      0.0356                 0.1172                 0.2916
 IR Inten    --      1.1854                 3.0474                 0.0131

                     10                     11                     12
                      A                      A                      A
 Frequencies --    317.6735               335.6322               427.6420
 Red. masses --      4.5845                 5.7484                 3.0392
 Frc consts  --      0.2726                 0.3815                 0.3275
 IR Inten    --      8.6247                 7.1067                 0.0014

                     13                     14                     15
                      A                      A                      A
 Frequencies --    450.7252               516.4184               521.6343
 Red. masses --      5.4748                 2.7572                 4.5546
 Frc consts  --      0.6553                 0.4332                 0.7302
 IR Inten    --      7.6780                 7.7450                 1.1933

                     16                     17                     18
                      A                      A                      A
 Frequencies --    619.4107               646.3731               702.4232
 Red. masses --      5.8360                 7.0958                 3.5355
 Frc consts  --      1.3192                 1.7467                 1.0278
 IR Inten    --     24.9153                 4.9395                12.9989

                     19                     20                     21
                      A                      A                      A
 Frequencies --    782.8217               791.5879               827.4033
 Red. masses --      4.7402                 5.2410                 1.2715
 Frc consts  --      1.7115                 1.9349                 0.5129
 IR Inten    --     42.1924                 2.4780                 0.3830

                     22                     23                     24
                      A                      A                      A
 Frequencies --    843.2629               862.0826               977.8588
 Red. masses --      5.5591                 1.9256                 1.3296
 Frc consts  --      2.3291                 0.8432                 0.7491
 IR Inten    --      9.7950                32.2177                 0.5818

                     25                     26                     27
                      A                      A                      A
 Frequencies --    986.2429               991.5547              1025.3725
 Red. masses --      7.5614                 1.3395                 2.6473
 Frc consts  --      4.3333                 0.7759                 1.6399
 IR Inten    --      9.6631                 0.1677                 5.7522

                     28                     29                     30
                      A                      A                      A
 Frequencies --   1054.6891              1127.0821              1136.3761
 Red. masses --      7.0738                 2.3029                 1.7147
 Frc consts  --      4.6361                 1.7236                 1.3046
 IR Inten    --     75.2675               123.3013                42.0013

                     31                     32                     33
                      A                      A                      A
 Frequencies --   1167.4208              1171.5335              1187.4995
 Red. masses --      1.2738                 1.2795                 1.2099
 Frc consts  --      1.0228                 1.0346                 1.0052
 IR Inten    --      0.7040                 0.8055               243.8207

                     34                     35                     36
                      A                      A                      A
 Frequencies --   1200.9842              1210.8438              1279.9861
 Red. masses --      1.4046                 1.5618                 5.5810
 Frc consts  --      1.1937                 1.3492                 5.3874
 IR Inten    --      4.1294                49.9852               616.6469

                     37                     38                     39
                      A                      A                      A
 Frequencies --   1293.0267              1326.8231              1351.2398
 Red. masses --      3.4572                 1.3547                 8.0185
 Frc consts  --      3.4056                 1.4051                 8.6260
 IR Inten    --    133.0063                 5.0701                96.6560

                     40                     41                     42
                      A                      A                      A
 Frequencies --   1447.6367              1469.8938              1475.2407
 Red. masses --      3.1885                 1.1869                 1.1988
 Frc consts  --      3.9369                 1.5109                 1.5372
 IR Inten    --      0.7979                38.1906                 1.7152

                     43                     44                     45
                      A                      A                      A
 Frequencies --   1482.8692              1493.5307              1498.5876
 Red. masses --      1.0447                 1.0455                 1.0488
 Frc consts  --      1.3535                 1.3740                 1.3877
 IR Inten    --      9.4621                10.0107                10.5162

                     46                     47                     48
                      A                      A                      A
 Frequencies --   1503.0544              1540.2005              1609.6664
 Red. masses --      1.0550                 2.5343                 6.9241
 Frc consts  --      1.4042                 3.5421                10.5702
 IR Inten    --     35.3029                61.5883                 4.7462

                     49                     50                     51
                      A                      A                      A
 Frequencies --   1645.5222              1759.9177              3010.5626
 Red. masses --      5.8266                11.6011                 1.0342
 Frc consts  --      9.2956                21.1706                 5.5228
 IR Inten    --    224.6492               319.7855                54.0745

                     52                     53                     54
                      A                      A                      A
 Frequencies --   3048.6174              3071.9862              3120.3463
 Red. masses --      1.0295                 1.1065                 1.1069
 Frc consts  --      5.6377                 6.1525                 6.3498
 IR Inten    --     42.8238                33.4661                20.1225

                     55                     56                     57
                      A                      A                      A
 Frequencies --   3138.8049              3152.5314              3190.6201
 Red. masses --      1.0997                 1.1062                 1.0891
 Frc consts  --      6.3834                 6.4772                 6.5321
 IR Inten    --     19.7048                15.7402                 3.4563

                     58                     59                     60
                      A                      A                      A
 Frequencies --   3193.7180              3209.8203              3211.4985
 Red. masses --      1.0886                 1.0930                 1.0939
 Frc consts  --      6.5418                 6.6351                 6.6474
 IR Inten    --      0.2467                 7.4000                 2.1624

 - Thermochemistry -
 -------------------
 Temperature   298.150 Kelvin.  Pressure   1.00000 Atm.
 Atom     1 has atomic number  6 and mass  12.00000

 Molecular mass:   166.06299 amu.
 Principal axes and moments of inertia in atomic units:
                           1         2         3
     Eigenvalues --   555.476194232.098514764.68285
           X            0.99987   0.01615   0.00000
           Y           -0.01615   0.99987   0.00000
           Z            0.00000   0.00000   1.00000
 This molecule is an asymmetric top.
 Rotational symmetry number  1.
 Warning -- assumption of classical behavior for rotation
           may cause significant error
 Rotational temperatures (Kelvin)      0.15593     0.02047     0.01818
 Rotational constants (GHZ):           3.24900     0.42644     0.37877
 Zero-point vibrational energy     459640.0 (Joules/Mol)
                                  109.85660 (Kcal/Mol)
 Warning -- explicit consideration of  16 degrees of freedom as
           vibrations may cause significant error
 Vibrational temperatures:     69.83   105.60   150.76   190.18   191.11
          (Kelvin)            241.08   323.77   340.21   455.77   457.06
                              482.90   615.28   648.49   743.01   750.51
                              891.19   929.99  1010.63  1126.30  1138.92
                             1190.45  1213.27  1240.34  1406.92  1418.98
                             1426.62  1475.28  1517.46  1621.62  1634.99
                             1679.66  1685.57  1708.54  1727.95  1742.13
                             1841.61  1860.37  1909.00  1944.13  2082.82
                             2114.85  2122.54  2133.52  2148.85  2156.13
                             2162.56  2216.00  2315.95  2367.54  2532.13
                             4331.52  4386.27  4419.90  4489.48  4516.03
                             4535.78  4590.58  4595.04  4618.21  4620.62

 Zero-point correction=                           0.175068 (Hartree/Particle)
 Thermal correction to Energy=                    0.186549
 Thermal correction to Enthalpy=                  0.187494
 Thermal correction to Gibbs Free Energy=         0.137043
 Sum of electronic and zero-point Energies=           -574.641414
 Sum of electronic and thermal Energies=              -574.629932
 Sum of electronic and thermal Enthalpies=            -574.628988
 Sum of electronic and thermal Free Energies=         -574.679438

                     E (Thermal)             CV                S
                      KCal/Mol        Cal/Mol-Kelvin    Cal/Mol-Kelvin
 Total                  117.062             41.820            106.181
 Electronic               0.000              0.000              0.000
 Translational            0.889              2.981             41.230
 Rotational               0.889              2.981             30.794
 Vibrational            115.284             35.859             34.157
 Vibration     1          0.595              1.978              4.876
 Vibration     2          0.599              1.967              4.060
 Vibration     3          0.605              1.945              3.363
 Vibration     4          0.612              1.921              2.914
 Vibration     5          0.613              1.921              2.905
 Vibration     6          0.624              1.882              2.463
 Vibration     7          0.650              1.803              1.918
 Vibration     8          0.655              1.785              1.829
 Vibration     9          0.704              1.642              1.327
 Vibration    10          0.704              1.640              1.322
 Vibration    11          0.717              1.604              1.233
 Vibration    12          0.789              1.410              0.866
 Vibration    13          0.810              1.359              0.794
 Vibration    14          0.871              1.214              0.618
 Vibration    15          0.877              1.202              0.606
 Vibration    16          0.979              0.991              0.417

 Optimization completed.
    -- Stationary point found.
 Normal termination of Gaussian 09 at Wed Nov 17 15:36:58 2021.
