 Gaussian 09, Revision D.01,
 Gaussian 09:  ES64L-G09RevD.01 24-Apr-2013

 ---------------------------------------------------------------------
 # b3lyp/6-311+g(d,p) geom=connectivity pop=(hirshfeld,chelpg,mbs,npa)
 ---------------------------------------------------------------------

 ---------
 Table13_5
 ---------
 Symbolic Z-matrix:
 Charge =  0 Multiplicity = 1

                         Standard orientation:
 ---------------------------------------------------------------------
 Center     Atomic      Atomic             Coordinates (Angstroms)
 Number     Number       Type             X           Y           Z
 ---------------------------------------------------------------------
      1          6           0       -1.660301    1.411324    0.019156
      2          6           0       -0.489083    2.166581    0.012346
      3          6           0        0.765129    1.570628   -0.023854
      4          6           0        0.895187    0.164114   -0.065029
      5          6           0       -0.290634   -0.603427   -0.040990
      6          6           0       -1.525088    0.029008   -0.005708
      7          1           0       -2.636717    1.874799    0.049534
      8          1           0       -0.556174    3.248634    0.039783
      9          1           0        1.641468    2.202562   -0.021304
     10          1           0       -0.260716   -1.682208   -0.050449
     11          7           0        2.137862   -0.446780   -0.138047
     12          6           0        3.337594    0.347983    0.073062
     13          1           0        3.382426    0.791862    1.078360
     14          1           0        4.211466   -0.288780   -0.058606
     15          1           0        3.407802    1.155700   -0.660617
     16          6           0        2.239439   -1.886661    0.040928
     17          1           0        1.649238   -2.418055   -0.710741
     18          1           0        3.278349   -2.187291   -0.088116
     19          1           0        1.905886   -2.216164    1.035841
     20         17           0       -2.977736   -0.973583    0.017246
 ---------------------------------------------------------------------

 SCF Done:  E(RB3LYP) =  -825.938165796     A.U. after   16 cycles

 The electronic state is 1-A.
 Alpha  occ. eigenvalues -- -101.54630 -14.34313 -10.23420 -10.22608 -10.21083
 Alpha  occ. eigenvalues --  -10.21036 -10.18226 -10.17799 -10.17389 -10.17280
 Alpha  occ. eigenvalues --   -9.46091  -7.22540  -7.21579  -7.21549  -0.96143
 Alpha  occ. eigenvalues --   -0.88443  -0.82960  -0.76110  -0.74682  -0.72441
 Alpha  occ. eigenvalues --   -0.67546  -0.60894  -0.58373  -0.53749  -0.49781
 Alpha  occ. eigenvalues --   -0.48924  -0.47706  -0.45641  -0.44000  -0.43311
 Alpha  occ. eigenvalues --   -0.41913  -0.41077  -0.39435  -0.39371  -0.37735
 Alpha  occ. eigenvalues --   -0.35521  -0.33855  -0.31077  -0.29343  -0.24992
 Alpha  occ. eigenvalues --   -0.20740
 Alpha virt. eigenvalues --   -0.01944  -0.00921  -0.00340   0.01085   0.01561
 Alpha virt. eigenvalues --    0.01866   0.03181   0.03527   0.03917   0.04010
 Alpha virt. eigenvalues --    0.06142   0.06243   0.06618   0.06743   0.07442

 Mulliken charges:
               1
     1  C   -0.426785
     2  C   -0.536612
     3  C    0.239598
     4  C   -0.743309
     5  C   -0.342815
     6  C    0.690891
     7  H    0.138410
     8  H    0.127374
     9  H    0.113295
    10  H    0.132827
    11  N   -0.002256
    12  C   -0.297212
    13  H    0.151646
    14  H    0.135880
    15  H    0.140707
    16  C   -0.301073
    17  H    0.142895
    18  H    0.137104
    19  H    0.152882
    20  Cl   0.346556
 Sum of Mulliken charges =   0.00000

 Dipole moment (field-independent basis, Debye):
    X=              3.6325    Y=              0.1225    Z=              0.1903  Tot=              3.6395
 Quadrupole moment (field-independent basis, Debye-Ang):
   XX=            -63.3416   YY=            -62.0914   ZZ=            -71.8764
   XY=             -3.7710   XZ=              0.3782   YZ=              0.0782

 ESP charges:
               1
     1  C   -0.154939
     2  C   -0.060431
     3  C   -0.285146
     4  C    0.344879
     5  C   -0.261519
     6  C    0.152225
     7  H    0.103033
     8  H    0.097028
     9  H    0.138699
    10  H    0.134200
    11  N   -0.354515
    12  C    0.115588
    13  H   -0.000315
    14  H    0.040445
    15  H    0.000766
    16  C    0.091609
    17  H    0.010031
    18  H    0.045667
    19  H    0.008883
    20  Cl  -0.166185
 Sum of ESP charges =   0.00000

 Summary of Natural Population Analysis:

                                       Natural Population
                Natural  -----------------------------------------------
    Atom  No    Charge         Core      Valence    Rydberg      Total
 -----------------------------------------------------------------------
      C    1   -0.27814      1.99895     4.25870    0.02049     6.27814
      C    2   -0.16701      1.99917     4.14989    0.01795     6.16701
      C    3   -0.26971      1.99910     4.25443    0.01618     6.26971
      C    4    0.20847      1.99902     3.77348    0.01903     5.79153
      C    5   -0.29317      1.99890     4.27684    0.01743     6.29317
      C    6   -0.01043      1.99859     3.98842    0.02343     6.01043
      H    7    0.22227      0.00000     0.77606    0.00166     0.77773
      H    8    0.20770      0.00000     0.79080    0.00150     0.79230
      H    9    0.20996      0.00000     0.78847    0.00157     0.79004
      H   10    0.22440      0.00000     0.77362    0.00197     0.77560
      N   11   -0.48981      1.99930     5.47618    0.01433     7.48981
      C   12   -0.35209      1.99935     4.33964    0.01310     6.35209
      H   13    0.18232      0.00000     0.81463    0.00305     0.81768
      H   14    0.19853      0.00000     0.80025    0.00123     0.80147
      H   15    0.19485      0.00000     0.80348    0.00168     0.80515
      C   16   -0.35342      1.99934     4.34101    0.01307     6.35342
      H   17    0.19581      0.00000     0.80250    0.00169     0.80419
      H   18    0.19876      0.00000     0.80003    0.00121     0.80124
      H   19    0.18298      0.00000     0.81396    0.00307     0.81702
     Cl   20   -0.01227      9.99962     6.99320    0.01945    17.01227
 =======================================================================
   * Total *    0.00000     27.99133    53.81559    0.19309    82.00000

 Normal termination of Gaussian 09 at Fri Jul 23 17:29:41 2021.
