 Gaussian 09, Revision D.01,
 Gaussian 09:  ES64L-G09RevD.01 24-Apr-2013

 ----------------------------------------------------------------------
 # opt freq=noraman b3lyp/6-311+g(d,p) pop=(npa,hirshfeld,chelpg,mbs) g
 eom=connectivity
 ----------------------------------------------------------------------

 -------------------
 Title Card Required
 -------------------
 Symbolic Z-matrix:
 Charge =  0 Multiplicity = 1

 SCF Done:  E(RB3LYP) =  -1192.43077267     A.U. after   17 cycles
 SCF Done:  E(RB3LYP) =  -1192.47514496     A.U. after   16 cycles
 SCF Done:  E(RB3LYP) =  -1192.47225781     A.U. after   16 cycles
 SCF Done:  E(RB3LYP) =  -1192.47655492     A.U. after   11 cycles
 SCF Done:  E(RB3LYP) =  -1192.49589787     A.U. after   14 cycles
 SCF Done:  E(RB3LYP) =  -1192.49865584     A.U. after   14 cycles
 SCF Done:  E(RB3LYP) =  -1192.50011520     A.U. after   14 cycles
 SCF Done:  E(RB3LYP) =  -1192.50313266     A.U. after   13 cycles
 SCF Done:  E(RB3LYP) =  -1192.50481648     A.U. after   15 cycles
 SCF Done:  E(RB3LYP) =  -1192.50673289     A.U. after   15 cycles
 SCF Done:  E(RB3LYP) =  -1192.50759306     A.U. after   15 cycles
 SCF Done:  E(RB3LYP) =  -1192.50792213     A.U. after   12 cycles
 SCF Done:  E(RB3LYP) =  -1192.50800937     A.U. after   12 cycles
 SCF Done:  E(RB3LYP) =  -1192.50808804     A.U. after   12 cycles
 SCF Done:  E(RB3LYP) =  -1192.50811429     A.U. after   12 cycles
 SCF Done:  E(RB3LYP) =  -1192.50811736     A.U. after   10 cycles
 SCF Done:  E(RB3LYP) =  -1192.50811804     A.U. after   10 cycles
 SCF Done:  E(RB3LYP) =  -1192.50811818     A.U. after    8 cycles
 Optimization completed.
    -- Stationary point found.
 Normal termination of Gaussian 09 at Tue Apr 23 15:03:47 2024.

 ----------------------------------------------------------------------
 #N Geom=AllCheck Guess=TCheck SCRF=Check GenChk RB3LYP/6-311+G(d,p) Fr
 eq
 ----------------------------------------------------------------------

 Structure from the checkpoint file:  "87.chk"
 -------------------
 Title Card Required
 -------------------
 Charge =  0 Multiplicity = 1

                         Standard orientation:
 ---------------------------------------------------------------------
 Center     Atomic      Atomic             Coordinates (Angstroms)
 Number     Number       Type             X           Y           Z
 ---------------------------------------------------------------------
      1          6           0        1.683204    1.283311    0.000101
      2          6           0        0.729636    0.256262    0.000192
      3          6           0        1.161391   -1.077097    0.000268
      4          6           0        2.523268   -1.360932    0.000153
      5          6           0        3.474405   -0.345792    0.000025
      6          6           0        3.030677    0.972632    0.000024
      7          1           0        1.394007    2.328070    0.000269
      8          1           0        0.437566   -1.876637    0.000413
      9          1           0        2.855938   -2.391300    0.000178
     10          7           0       -0.621224    0.638220    0.000179
     11          1           0       -0.816314    1.627938    0.000259
     12          6           0       -1.738956   -0.169301    0.000066
     13          8           0       -1.735662   -1.380175   -0.000236
     14          8           0       -2.828201    0.629844    0.000607
     15          6           0       -4.200670    0.069746   -0.000060
     16          6           0       -5.067000    1.328896   -0.000151
     17          1           0       -6.123875    1.052358   -0.000550
     18          1           0       -4.867940    1.934340    0.886802
     19          1           0       -4.867288    1.934585   -0.886782
     20          6           0       -4.428827   -0.748346   -1.272999
     21          1           0       -4.205970   -0.146638   -2.157914
     22          1           0       -3.810149   -1.644307   -1.288449
     23          1           0       -5.478824   -1.048749   -1.324678
     24          6           0       -4.429383   -0.748758    1.272515
     25          1           0       -4.207203   -0.147184    2.157675
     26          1           0       -5.479248   -1.049732    1.323629
     27          1           0       -3.810295   -1.644462    1.287992
     28         17           0        5.183535   -0.705976   -0.000153
     29          9           0        3.921388    1.982742   -0.000141
 ---------------------------------------------------------------------

 SCF Done:  E(RB3LYP) =  -1192.50811818     A.U. after    1 cycles

 The electronic state is 1-A.
 Alpha  occ. eigenvalues -- -101.56079 -24.70430 -19.17250 -19.11475 -14.37300
 Alpha  occ. eigenvalues --  -10.34134 -10.28169 -10.25911 -10.24972 -10.24510
 Alpha  occ. eigenvalues --  -10.20127 -10.20111 -10.18833 -10.17574 -10.17050
 Alpha  occ. eigenvalues --  -10.17049  -9.47517  -7.24004  -7.22989  -7.22952
 Alpha  occ. eigenvalues --   -1.24536  -1.12252  -1.03574  -0.96976  -0.90318
 Alpha  occ. eigenvalues --   -0.85278  -0.82475  -0.77579  -0.75438  -0.70934
 Alpha  occ. eigenvalues --   -0.70764  -0.67218  -0.65496  -0.61958  -0.59142
 Alpha  occ. eigenvalues --   -0.56971  -0.52906  -0.51480  -0.50826  -0.50237
 Alpha  occ. eigenvalues --   -0.49420  -0.48759  -0.47888  -0.46225  -0.45785
 Alpha  occ. eigenvalues --   -0.45516  -0.43023  -0.42538  -0.41396  -0.40711
 Alpha  occ. eigenvalues --   -0.40425  -0.39713  -0.38633  -0.38314  -0.37434
 Alpha  occ. eigenvalues --   -0.37346  -0.36104  -0.35396  -0.32301  -0.31714
 Alpha  occ. eigenvalues --   -0.31270  -0.29412  -0.27321  -0.23650
 Alpha virt. eigenvalues --   -0.03792  -0.02576  -0.01255  -0.00003   0.00416
 Alpha virt. eigenvalues --    0.01482   0.02035   0.02642   0.02877   0.03522
 Alpha virt. eigenvalues --    0.04078   0.04430   0.04899   0.04920   0.05482

 Mulliken charges:
               1
     1  C   -0.663443
     2  C   -0.123506
     3  C    0.665574
     4  C   -0.923490
     5  C    1.388610
     6  C   -1.068589
     7  H    0.118390
     8  H    0.169676
     9  H    0.153348
    10  N   -0.323107
    11  H    0.304051
    12  C    0.298151
    13  O   -0.278580
    14  O    0.042163
    15  C   -0.292877
    16  C   -0.365803
    17  H    0.147762
    18  H    0.152238
    19  H    0.152238
    20  C   -0.342165
    21  H    0.150742
    22  H    0.182611
    23  H    0.142018
    24  C   -0.342079
    25  H    0.150734
    26  H    0.142006
    27  H    0.182600
    28  Cl   0.330929
    29  F   -0.150200
 Sum of Mulliken charges =   0.00000

 Dipole moment (field-independent basis, Debye):
    X=             -4.4369    Y=              1.1971    Z=              0.0000  Tot=              4.5956
 Quadrupole moment (field-independent basis, Debye-Ang):
   XX=           -102.7766   YY=           -100.1768   ZZ=           -102.9511
   XY=             -6.0593   XZ=              0.0034   YZ=             -0.0011

  Exact polarizability: 240.153  -5.145 147.313   0.039  -0.006 104.099
 Approx polarizability: 300.175  -2.758 246.621  -0.008   0.003 151.687

 ESP charges:
               1
     1  C   -0.474179
     2  C    0.489134
     3  C   -0.324287
     4  C   -0.015641
     5  C   -0.091379
     6  C    0.449893
     7  H    0.204414
     8  H    0.181649
     9  H    0.110037
    10  N   -0.750863
    11  H    0.381246
    12  C    0.997682
    13  O   -0.596398
    14  O   -0.668408
    15  C    0.827845
    16  C   -0.318452
    17  H    0.054286
    18  H    0.074359
    19  H    0.074346
    20  C   -0.358748
    21  H    0.068786
    22  H    0.090315
    23  H    0.064135
    24  C   -0.358125
    25  H    0.068667
    26  H    0.063892
    27  H    0.090180
    28  Cl  -0.090489
    29  F   -0.243894
 Sum of ESP charges =   0.00000

 Summary of Natural Population Analysis:

                                       Natural Population
                Natural  -----------------------------------------------
    Atom  No    Charge         Core      Valence    Rydberg      Total
 -----------------------------------------------------------------------
      C    1   -0.28935      1.99899     4.27507    0.01529     6.28935
      C    2    0.17766      1.99900     3.80417    0.01916     5.82234
      C    3   -0.23888      1.99907     4.22377    0.01604     6.23888
      C    4   -0.18796      1.99902     4.17045    0.01850     6.18796
      C    5   -0.12470      1.99847     4.10338    0.02285     6.12470
      C    6    0.40319      1.99828     3.57073    0.02780     5.59681
      H    7    0.22288      0.00000     0.77508    0.00204     0.77712
      H    8    0.25340      0.00000     0.74470    0.00189     0.74660
      H    9    0.22625      0.00000     0.77205    0.00170     0.77375
      N   10   -0.61607      1.99926     5.60212    0.01469     7.61607
      H   11    0.40423      0.00000     0.59242    0.00335     0.59577
      C   12    0.93418      1.99943     3.01675    0.04965     5.06582
      O   13   -0.64484      1.99973     6.63443    0.01069     8.64484
      O   14   -0.60486      1.99970     6.58666    0.01850     8.60486
      C   15    0.27616      1.99911     3.70385    0.02088     5.72384
      C   16   -0.58232      1.99924     4.57090    0.01218     6.58232
      H   17    0.20734      0.00000     0.79159    0.00106     0.79266
      H   18    0.20954      0.00000     0.78908    0.00138     0.79046
      H   19    0.20954      0.00000     0.78909    0.00138     0.79046
      C   20   -0.60650      1.99923     4.59582    0.01144     6.60650
      H   21    0.20699      0.00000     0.79168    0.00133     0.79301
      H   22    0.23081      0.00000     0.76777    0.00142     0.76919
      H   23    0.20818      0.00000     0.79068    0.00114     0.79182
      C   24   -0.60649      1.99923     4.59581    0.01144     6.60649
      H   25    0.20699      0.00000     0.79167    0.00133     0.79301
      H   26    0.20817      0.00000     0.79069    0.00114     0.79183
      H   27    0.23080      0.00000     0.76778    0.00142     0.76920
     Cl   28    0.02496      9.99962     6.95433    0.02109    16.97504
      F   29   -0.33932      1.99992     7.33187    0.00752     9.33932
 =======================================================================
   * Total *    0.00000     39.98730    87.69441    0.31829   128.00000

                      1                      2                      3
                      A                      A                      A
 Frequencies --     26.5550                33.3343                68.5760
 Red. masses --      4.5624                 4.9829                 6.2029
 Frc consts  --      0.0019                 0.0033                 0.0172
 IR Inten    --      0.0573                 0.6060                 4.9630

                      4                      5                      6
                      A                      A                      A
 Frequencies --     77.7499               104.3747               136.6970
 Red. masses --      5.3857                 3.9794                 6.1938
 Frc consts  --      0.0192                 0.0255                 0.0682
 IR Inten    --      0.1219                 1.0809                 0.0879

                      7                      8                      9
                      A                      A                      A
 Frequencies --    188.1744               199.9154               207.2631
 Red. masses --      5.3466                 1.1040                 5.3086
 Frc consts  --      0.1115                 0.0260                 0.1344
 IR Inten    --      5.6896                 0.1525                 1.1010

                     10                     11                     12
                      A                      A                      A
 Frequencies --    235.0708               237.4530               246.2789
 Red. masses --      6.7371                 6.5103                 1.1302
 Frc consts  --      0.2193                 0.2163                 0.0404
 IR Inten    --      2.5294                 0.0010                 0.2377

                     13                     14                     15
                      A                      A                      A
 Frequencies --    269.7422               305.2847               328.5065
 Red. masses --      1.0627                 4.5844                 6.5402
 Frc consts  --      0.0456                 0.2517                 0.4158
 IR Inten    --      0.0633                 0.6788                 0.1247

                     16                     17                     18
                      A                      A                      A
 Frequencies --    335.6405               350.2083               382.9205
 Red. masses --      4.5666                 2.5685                 5.0739
 Frc consts  --      0.3031                 0.1856                 0.4383
 IR Inten    --     13.7691                 1.0909                 4.0890

                     19                     20                     21
                      A                      A                      A
 Frequencies --    431.9985               456.3133               459.5875
 Red. masses --      2.9294                 2.8819                 2.9740
 Frc consts  --      0.3221                 0.3536                 0.3701
 IR Inten    --      4.0954                 1.6650                 3.2311

                     22                     23                     24
                      A                      A                      A
 Frequencies --    466.1647               545.3330               550.3812
 Red. masses --      3.0913                 5.7777                 1.1168
 Frc consts  --      0.3958                 1.0123                 0.1993
 IR Inten    --      2.0459                 2.1371                68.9918

                     25                     26                     27
                      A                      A                      A
 Frequencies --    567.0447               627.0439               667.7483
 Red. masses --      8.0316                 5.1436                 6.0870
 Frc consts  --      1.5216                 1.1916                 1.5991
 IR Inten    --     13.2115                 5.1248                35.5375

                     28                     29                     30
                      A                      A                      A
 Frequencies --    704.7229               731.7369               768.0969
 Red. masses --      3.1529                 6.5357                 6.7881
 Frc consts  --      0.9226                 2.0618                 2.3596
 IR Inten    --      4.4846                 1.3696                 9.5694

                     31                     32                     33
                      A                      A                      A
 Frequencies --    770.6283               806.1589               838.4749
 Red. masses --     11.4830                 3.7490                 1.3948
 Frc consts  --      4.0179                 1.4355                 0.5777
 IR Inten    --     16.1297                 1.3575                 5.4222

                     34                     35                     36
                      A                      A                      A
 Frequencies --    855.5703               888.9705               924.6469
 Red. masses --      1.6091                 4.9846                 1.6406
 Frc consts  --      0.6940                 2.3209                 0.8264
 IR Inten    --     54.4850                65.6171                 0.0304

                     37                     38                     39
                      A                      A                      A
 Frequencies --    927.8947               955.1262               972.3756
 Red. masses --      1.6347                 4.4908                 1.2008
 Frc consts  --      0.8292                 2.4137                 0.6689
 IR Inten    --      0.2612                38.1303                 0.0736

                     40                     41                     42
                      A                      A                      A
 Frequencies --    977.6486              1045.8959              1052.8290
 Red. masses --      1.2944                 2.4341                 1.4114
 Frc consts  --      0.7289                 1.5688                 0.9218
 IR Inten    --      0.0024                 8.2082                 0.6941

                     43                     44                     45
                      A                      A                      A
 Frequencies --   1061.8587              1090.6292              1165.5047
 Red. masses --      2.1887                 4.1220                 1.5201
 Frc consts  --      1.4540                 2.8888                 1.2166
 IR Inten    --      3.6872               196.1709               179.7896

                     46                     47                     48
                      A                      A                      A
 Frequencies --   1178.1929              1201.6118              1238.5557
 Red. masses --      2.2869                 1.7602                 2.6200
 Frc consts  --      1.8704                 1.4974                 2.3680
 IR Inten    --    693.5231                11.3331               205.3674

                     49                     50                     51
                      A                      A                      A
 Frequencies --   1265.6121              1269.2350              1280.7951
 Red. masses --      2.7484                 1.7202                 2.7932
 Frc consts  --      2.5937                 1.6327                 2.6996
 IR Inten    --     15.5532                31.1857                 9.4878

                     52                     53                     54
                      A                      A                      A
 Frequencies --   1317.2196              1334.0692              1402.7712
 Red. masses --      5.8317                 3.7970                 1.2662
 Frc consts  --      5.9616                 3.9815                 1.4680
 IR Inten    --     93.5931                76.5096                21.6118

                     55                     56                     57
                      A                      A                      A
 Frequencies --   1404.6662              1428.7818              1430.9642
 Red. masses --      1.2802                 2.8858                 1.2870
 Frc consts  --      1.4882                 3.4709                 1.5526
 IR Inten    --     20.8330               222.5864                 2.1308

                     58                     59                     60
                      A                      A                      A
 Frequencies --   1471.5854              1490.3241              1491.4038
 Red. masses --      1.0447                 1.0454                 1.0490
 Frc consts  --      1.3329                 1.3680                 1.3747
 IR Inten    --      0.3696                 0.3239                 0.6952

                     61                     62                     63
                      A                      A                      A
 Frequencies --   1498.1243              1504.3416              1523.1173
 Red. masses --      1.0667                 1.0547                 2.9631
 Frc consts  --      1.4105                 1.4062                 4.0501
 IR Inten    --     21.3030                 2.7120               258.4318

                     64                     65                     66
                      A                      A                      A
 Frequencies --   1525.7610              1552.6151              1626.0951
 Red. masses --      1.0608                 2.4054                 5.1867
 Frc consts  --      1.4550                 3.4164                 8.0803
 IR Inten    --     15.9691               439.9650               153.9201

                     67                     68                     69
                      A                      A                      A
 Frequencies --   1648.4343              1778.0268              3035.4088
 Red. masses --      6.5521                 9.8854                 1.0355
 Frc consts  --     10.4900                18.4128                 5.6213
 IR Inten    --     86.7661               247.1819                 8.2417

                     70                     71                     72
                      A                      A                      A
 Frequencies --   3035.6645              3043.6011              3095.0485
 Red. masses --      1.0377                 1.0375                 1.1019
 Frc consts  --      5.6342                 5.6626                 6.2191
 IR Inten    --     23.2742                23.7015                 7.2866

                     73                     74                     75
                      A                      A                      A
 Frequencies --   3097.2018              3110.6223              3111.5812
 Red. masses --      1.1017                 1.1029                 1.1018
 Frc consts  --      6.2268                 6.2875                 6.2849
 IR Inten    --     18.3870                28.4173                43.8566

                     76                     77                     78
                      A                      A                      A
 Frequencies --   3137.5470              3140.6025              3182.4803
 Red. masses --      1.0999                 1.0993                 1.0915
 Frc consts  --      6.3794                 6.3883                 6.5131
 IR Inten    --      0.5128                13.5644                 2.0037

                     79                     80                     81
                      A                      A                      A
 Frequencies --   3198.2435              3247.1480              3626.7786
 Red. masses --      1.0911                 1.0925                 1.0767
 Frc consts  --      6.5755                 6.7867                 8.3444
 IR Inten    --      0.6485                 8.2481                39.4219

 - Thermochemistry -
 -------------------
 Temperature   298.150 Kelvin.  Pressure   1.00000 Atm.
 Atom     1 has atomic number  6 and mass  12.00000

 Molecular mass:   245.06188 amu.
 Principal axes and moments of inertia in atomic units:
                           1         2         3
     Eigenvalues --  1177.20211********************
           X            0.99999  -0.00342   0.00000
           Y            0.00342   0.99999  -0.00001
           Z            0.00000   0.00001   1.00000
 This molecule is an asymmetric top.
 Rotational symmetry number  1.
 Warning -- assumption of classical behavior for rotation
           may cause significant error
 Rotational temperatures (Kelvin)      0.07358     0.00783     0.00732
 Rotational constants (GHZ):           1.53308     0.16314     0.15250
 Zero-point vibrational energy     591962.3 (Joules/Mol)
                                  141.48237 (Kcal/Mol)
 Warning -- explicit consideration of  25 degrees of freedom as
           vibrations may cause significant error
 Vibrational temperatures:     38.21    47.96    98.67   111.86   150.17
          (Kelvin)            196.68   270.74   287.63   298.21   338.21
                              341.64   354.34   388.10   439.24   472.65
                              482.91   503.87   550.94   621.55   656.53
                              661.24   670.71   784.61   791.87   815.85
                              902.18   960.74  1013.94  1052.80  1105.12
                             1108.76  1159.88  1206.38  1230.97  1279.03
                             1330.36  1335.03  1374.21  1399.03  1406.62
                             1504.81  1514.78  1527.78  1569.17  1676.90
                             1695.15  1728.85  1782.00  1820.93  1826.14
                             1842.78  1895.18  1919.43  2018.27  2021.00
                             2055.70  2058.84  2117.28  2144.24  2145.79
                             2155.46  2164.41  2191.42  2195.23  2233.86
                             2339.59  2371.73  2558.18  4367.27  4367.64
                             4379.06  4453.08  4456.18  4475.49  4476.87
                             4514.22  4518.62  4578.87  4601.55  4671.92
                             5218.12

 Zero-point correction=                           0.225467 (Hartree/Particle)
 Thermal correction to Energy=                    0.241606
 Thermal correction to Enthalpy=                  0.242550
 Thermal correction to Gibbs Free Energy=         0.180797
 Sum of electronic and zero-point Energies=          -1192.282652
 Sum of electronic and thermal Energies=             -1192.266512
 Sum of electronic and thermal Enthalpies=           -1192.265568
 Sum of electronic and thermal Free Energies=        -1192.327321

                     E (Thermal)             CV                S
                      KCal/Mol        Cal/Mol-Kelvin    Cal/Mol-Kelvin
 Total                  151.610             60.386            129.970
 Electronic               0.000              0.000              0.000
 Translational            0.889              2.981             42.390
 Rotational               0.889              2.981             33.399
 Vibrational            149.833             54.424             54.181
 Vibration     1          0.593              1.984              6.071
 Vibration     2          0.594              1.983              5.620
 Vibration     3          0.598              1.969              4.194
 Vibration     4          0.599              1.964              3.947
 Vibration     5          0.605              1.946              3.371
 Vibration     6          0.614              1.917              2.850
 Vibration     7          0.633              1.856              2.246
 Vibration     8          0.638              1.840              2.134
 Vibration     9          0.641              1.830              2.068
 Vibration    10          0.655              1.787              1.840
 Vibration    11          0.656              1.783              1.822
 Vibration    12          0.661              1.769              1.757
 Vibration    13          0.674              1.729              1.598
 Vibration    14          0.696              1.664              1.388
 Vibration    15          0.712              1.619              1.267
 Vibration    16          0.717              1.604              1.233
 Vibration    17          0.727              1.575              1.165
 Vibration    18          0.752              1.507              1.028
 Vibration    19          0.793              1.401              0.852
 Vibration    20          0.815              1.347              0.777
 Vibration    21          0.818              1.340              0.767
 Vibration    22          0.824              1.325              0.748
 Vibration    23          0.900              1.150              0.554
 Vibration    24          0.906              1.139              0.543
 Vibration    25          0.923              1.103              0.510

 Optimization completed.
    -- Stationary point found.
 Normal termination of Gaussian 09 at Tue Apr 23 15:13:59 2024.
