 Gaussian 09, Revision D.01,
 Gaussian 09:  ES64L-G09RevD.01 24-Apr-2013

 ----------------------------------------------------------------------
 # opt freq b3lyp/6-311+g(d,p) geom=connectivity pop=(hirshfeld,npa,mbs
 ,chelpg)
 ----------------------------------------------------------------------

 ---
 tit
 ---
 Symbolic Z-matrix:
 Charge =  0 Multiplicity = 1

 SCF Done:  E(RB3LYP) =  -582.430407322     A.U. after   16 cycles
 SCF Done:  E(RB3LYP) =  -582.494316003     A.U. after   14 cycles
 SCF Done:  E(RB3LYP) =  -582.541681093     A.U. after   16 cycles
 SCF Done:  E(RB3LYP) =  -582.555690793     A.U. after   14 cycles
 SCF Done:  E(RB3LYP) =  -582.558747199     A.U. after   13 cycles
 SCF Done:  E(RB3LYP) =  -582.559661384     A.U. after   13 cycles
 SCF Done:  E(RB3LYP) =  -582.560198469     A.U. after   13 cycles
 SCF Done:  E(RB3LYP) =  -582.560512957     A.U. after   13 cycles
 SCF Done:  E(RB3LYP) =  -582.560803247     A.U. after   12 cycles
 SCF Done:  E(RB3LYP) =  -582.560895015     A.U. after   12 cycles
 SCF Done:  E(RB3LYP) =  -582.560938601     A.U. after   12 cycles
 SCF Done:  E(RB3LYP) =  -582.560953863     A.U. after   11 cycles
 SCF Done:  E(RB3LYP) =  -582.560958383     A.U. after   10 cycles
 SCF Done:  E(RB3LYP) =  -582.560961031     A.U. after   10 cycles
 SCF Done:  E(RB3LYP) =  -582.560961615     A.U. after   10 cycles
 SCF Done:  E(RB3LYP) =  -582.560961697     A.U. after    8 cycles
 SCF Done:  E(RB3LYP) =  -582.560961707     A.U. after    7 cycles
 Optimization completed.
    -- Stationary point found.
 Normal termination of Gaussian 09 at Mon Mar  7 11:19:57 2022.

 ----------------------------------------------------------------------
 #N Geom=AllCheck Guess=TCheck SCRF=Check GenChk RB3LYP/6-311+G(d,p) Fr
 eq
 ----------------------------------------------------------------------

 Structure from the checkpoint file:  "guaiazulene.chk"
 ---
 tit
 ---
 Charge =  0 Multiplicity = 1

                         Standard orientation:
 ---------------------------------------------------------------------
 Center     Atomic      Atomic             Coordinates (Angstroms)
 Number     Number       Type             X           Y           Z
 ---------------------------------------------------------------------
      1          6           0        0.710965    0.576041   -0.000015
      2          6           0       -0.659981    0.761347   -0.000071
      3          6           0       -1.746976   -0.271705   -0.000034
      4          6           0        1.473844   -0.605271   -0.000037
      5          6           0       -1.597064   -1.668756   -0.000052
      6          6           0        0.941326   -1.892966   -0.000029
      7          6           0       -0.380797   -2.356167    0.000012
      8          1           0        1.286314    1.498853    0.000036
      9          1           0        1.680891   -2.690773    0.000043
     10          1           0       -0.467900   -3.438835    0.000018
     11          6           0       -1.294224    2.034640    0.000029
     12          6           0       -2.672184    1.814824   -0.000047
     13          1           0       -3.420073    2.598917   -0.000169
     14          6           0       -2.954535    0.432281   -0.000003
     15          1           0       -3.943481   -0.000584   -0.000078
     16          6           0        2.999401   -0.468681   -0.000024
     17          1           0        3.405005   -1.485900   -0.000065
     18          6           0        3.523808    0.226138    1.270123
     19          1           0        4.617948    0.239040    1.275866
     20          1           0        3.182239    1.263687    1.332048
     21          1           0        3.184666   -0.290701    2.171527
     22          6           0        3.523839    0.226251   -1.270091
     23          1           0        4.617979    0.239096   -1.275833
     24          1           0        3.184672   -0.290467   -2.171555
     25          1           0        3.182328    1.263826   -1.331899
     26          6           0       -0.614184    3.372980    0.000093
     27          1           0        0.020353    3.514891    0.882108
     28          1           0        0.020467    3.514884   -0.881839
     29          1           0       -1.354250    4.176344    0.000042
     30          6           0       -2.857938   -2.507233    0.000060
     31          1           0       -3.470787   -2.290819    0.880140
     32          1           0       -3.470911   -2.290855   -0.879943
     33          1           0       -2.627268   -3.572950    0.000068
 ---------------------------------------------------------------------

 SCF Done:  E(RB3LYP) =  -582.560961707     A.U. after    1 cycles

 The electronic state is 1-A.
 Alpha  occ. eigenvalues --  -10.20077 -10.18920 -10.18731 -10.18661 -10.18551
 Alpha  occ. eigenvalues --  -10.17947 -10.17824 -10.17529 -10.17015 -10.16556
 Alpha  occ. eigenvalues --  -10.16481 -10.16356 -10.16355 -10.16346 -10.15393
 Alpha  occ. eigenvalues --   -0.87761  -0.84020  -0.81744  -0.77523  -0.74598
 Alpha  occ. eigenvalues --   -0.73977  -0.69606  -0.69006  -0.66948  -0.63771
 Alpha  occ. eigenvalues --   -0.61486  -0.57982  -0.54342  -0.52632  -0.51440
 Alpha  occ. eigenvalues --   -0.48030  -0.45856  -0.45175  -0.43869  -0.42996
 Alpha  occ. eigenvalues --   -0.41953  -0.41774  -0.41623  -0.41104  -0.39804
 Alpha  occ. eigenvalues --   -0.39294  -0.39012  -0.37519  -0.36684  -0.36437
 Alpha  occ. eigenvalues --   -0.35837  -0.35072  -0.33989  -0.33355  -0.32468
 Alpha  occ. eigenvalues --   -0.32022  -0.28639  -0.23147  -0.18975
 Alpha virt. eigenvalues --   -0.07425  -0.04458  -0.00264   0.00737   0.01110
 Alpha virt. eigenvalues --    0.02324   0.02622   0.02708   0.03834   0.04614
 Alpha virt. eigenvalues --    0.04828   0.04929   0.05133   0.05872   0.06147

 Mulliken charges:
               1
     1  C   -0.204362
     2  C    0.283168
     3  C    0.126178
     4  C    0.553316
     5  C    0.997096
     6  C   -0.579642
     7  C   -0.877913
     8  H    0.123930
     9  H    0.118568
    10  H    0.116024
    11  C    0.292806
    12  C   -0.658950
    13  H    0.108772
    14  C   -0.167325
    15  H    0.113812
    16  C    0.304994
    17  H    0.107293
    18  C   -0.585431
    19  H    0.135072
    20  H    0.135659
    21  H    0.142910
    22  C   -0.585445
    23  H    0.135073
    24  H    0.142910
    25  H    0.135658
    26  C   -0.569531
    27  H    0.152569
    28  H    0.152560
    29  H    0.141798
    30  C   -0.759216
    31  H    0.164981
    32  H    0.164977
    33  H    0.137691
 Sum of Mulliken charges =   0.00000

 Dipole moment (field-independent basis, Debye):
    X=              0.9904    Y=             -0.6923    Z=              0.0000  Tot=              1.2084
 Quadrupole moment (field-independent basis, Debye-Ang):
   XX=            -86.1459   YY=            -85.5424   ZZ=            -97.4163
   XY=              1.1688   XZ=              0.0005   YZ=             -0.0003

  Exact polarizability: 248.039 -16.339 223.338   0.000   0.001 114.622
 Approx polarizability: 417.587 -72.979 402.673   0.000   0.002 176.515

 ESP charges:
               1
     1  C   -0.192500
     2  C    0.070390
     3  C    0.093415
     4  C    0.103077
     5  C    0.115020
     6  C   -0.109825
     7  C   -0.169798
     8  H    0.161270
     9  H    0.071947
    10  H    0.093506
    11  C   -0.093988
    12  C   -0.028136
    13  H    0.088609
    14  C   -0.353630
    15  H    0.160878
    16  C    0.085333
    17  H    0.034160
    18  C   -0.139200
    19  H    0.046932
    20  H    0.030739
    21  H    0.000967
    22  C   -0.139245
    23  H    0.046947
    24  H    0.000966
    25  H    0.030763
    26  C   -0.087750
    27  H    0.025442
    28  H    0.025422
    29  H    0.050396
    30  C   -0.245919
    31  H    0.069129
    32  H    0.069115
    33  H    0.085569
 Sum of ESP charges =   0.00000

 Summary of Natural Population Analysis:

                                       Natural Population
                Natural  -----------------------------------------------
    Atom  No    Charge         Core      Valence    Rydberg      Total
 -----------------------------------------------------------------------
      C    1   -0.12134      1.99892     4.10685    0.01557     6.12134
      C    2   -0.06476      1.99903     4.03975    0.02599     6.06476
      C    3    0.04589      1.99878     3.94430    0.01103     5.95411
      C    4   -0.04944      1.99899     4.02993    0.02052     6.04944
      C    5    0.00128      1.99914     3.97515    0.02443     5.99872
      C    6   -0.15275      1.99908     4.13535    0.01832     6.15275
      C    7   -0.21432      1.99893     4.19715    0.01825     6.21432
      H    8    0.19955      0.00000     0.79831    0.00214     0.80045
      H    9    0.19629      0.00000     0.80179    0.00191     0.80371
      H   10    0.19680      0.00000     0.80124    0.00196     0.80320
      C   11   -0.07805      1.99898     4.06094    0.01813     6.07805
      C   12   -0.17356      1.99906     4.15552    0.01898     6.17356
      H   13    0.20277      0.00000     0.79575    0.00148     0.79723
      C   14   -0.29196      1.99922     4.26671    0.02603     6.29196
      H   15    0.20820      0.00000     0.78940    0.00240     0.79180
      C   16   -0.23262      1.99920     4.21748    0.01595     6.23262
      H   17    0.19236      0.00000     0.80478    0.00286     0.80764
      C   18   -0.56669      1.99933     4.55771    0.00964     6.56669
      H   19    0.19997      0.00000     0.79871    0.00131     0.80003
      H   20    0.19432      0.00000     0.80429    0.00139     0.80568
      H   21    0.20550      0.00000     0.79343    0.00107     0.79450
      C   22   -0.56669      1.99933     4.55771    0.00964     6.56669
      H   23    0.19997      0.00000     0.79871    0.00131     0.80003
      H   24    0.20550      0.00000     0.79343    0.00107     0.79450
      H   25    0.19432      0.00000     0.80429    0.00139     0.80568
      C   26   -0.59614      1.99930     4.58737    0.00947     6.59614
      H   27    0.20606      0.00000     0.79235    0.00159     0.79394
      H   28    0.20606      0.00000     0.79235    0.00159     0.79394
      H   29    0.21068      0.00000     0.78798    0.00134     0.78932
      C   30   -0.59575      1.99931     4.58618    0.01026     6.59575
      H   31    0.21704      0.00000     0.78093    0.00203     0.78296
      H   32    0.21703      0.00000     0.78094    0.00203     0.78297
      H   33    0.20456      0.00000     0.79420    0.00124     0.79544
 =======================================================================
   * Total *    0.00010     29.98662    77.73096    0.28232   107.99990

                      1                      2                      3
                      A                      A                      A
 Frequencies --     35.5392                65.3946               102.4103
 Red. masses --      2.6202                 3.1427                 1.5917
 Frc consts  --      0.0019                 0.0079                 0.0098
 IR Inten    --      0.0007                 0.0205                 1.4954

                      4                      5                      6
                      A                      A                      A
 Frequencies --    112.6607               130.1690               143.4212
 Red. masses --      1.4694                 1.2350                 2.5020
 Frc consts  --      0.0110                 0.0123                 0.0303
 IR Inten    --      0.8682                 0.0020                 0.7946

                      7                      8                      9
                      A                      A                      A
 Frequencies --    146.5541               209.3408               229.3700
 Red. masses --      3.0399                 1.7683                 2.0784
 Frc consts  --      0.0385                 0.0457                 0.0644
 IR Inten    --      0.2342                 1.4106                 0.1512

                     10                     11                     12
                      A                      A                      A
 Frequencies --    229.6225               251.8007               272.3104
 Red. masses --      1.4832                 1.2981                 3.3177
 Frc consts  --      0.0461                 0.0485                 0.1449
 IR Inten    --      1.2968                 0.0556                 0.0227

                     13                     14                     15
                      A                      A                      A
 Frequencies --    279.5450               335.6618               371.4983
 Red. masses --      2.8737                 2.9518                 3.2074
 Frc consts  --      0.1323                 0.1960                 0.2608
 IR Inten    --      0.2905                 0.0120                 3.2654

                     16                     17                     18
                      A                      A                      A
 Frequencies --    393.9181               398.9248               408.6284
 Red. masses --      5.5802                 3.4281                 3.0607
 Frc consts  --      0.5102                 0.3214                 0.3011
 IR Inten    --      2.2245                 0.0433                 0.3439

                     19                     20                     21
                      A                      A                      A
 Frequencies --    480.5672               535.0393               538.3021
 Red. masses --      3.3276                 3.1806                 3.0983
 Frc consts  --      0.4528                 0.5364                 0.5290
 IR Inten    --      0.6572                 0.2084                 2.3958

                     22                     23                     24
                      A                      A                      A
 Frequencies --    572.1256               620.2370               658.6204
 Red. masses --      3.2115                 3.0416                 3.0208
 Frc consts  --      0.6193                 0.6894                 0.7720
 IR Inten    --      2.4537                 0.0001                 8.8632

                     25                     26                     27
                      A                      A                      A
 Frequencies --    671.8042               710.0113               727.4557
 Red. masses --      4.9263                 3.8871                 2.6664
 Frc consts  --      1.3100                 1.1545                 0.8314
 IR Inten    --      0.1927                 0.5551                10.1992

                     28                     29                     30
                      A                      A                      A
 Frequencies --    764.1269               792.3801               836.4375
 Red. masses --      5.7467                 1.6697                 1.3544
 Frc consts  --      1.9770                 0.6177                 0.5583
 IR Inten    --      1.8345                24.2302                23.9330

                     31                     32                     33
                      A                      A                      A
 Frequencies --    869.5272               902.1498               906.0145
 Red. masses --      3.1724                 2.5733                 1.3910
 Frc consts  --      1.4132                 1.2340                 0.6728
 IR Inten    --      5.9575                 3.6020                 1.7595

                     34                     35                     36
                      A                      A                      A
 Frequencies --    927.5471               950.0746               954.4541
 Red. masses --      1.1792                 2.6889                 1.5849
 Frc consts  --      0.5977                 1.4300                 0.8507
 IR Inten    --      0.9424                18.1718                 3.0137

                     37                     38                     39
                      A                      A                      A
 Frequencies --    960.4843               983.4471               983.4862
 Red. masses --      1.3753                 3.5667                 1.3423
 Frc consts  --      0.7475                 2.0325                 0.7649
 IR Inten    --      1.4724                 1.3528                 1.0739

                     40                     41                     42
                      A                      A                      A
 Frequencies --   1014.8288              1047.3587              1051.7184
 Red. masses --      1.6191                 1.5836                 1.5440
 Frc consts  --      0.9824                 1.0235                 1.0062
 IR Inten    --     16.2228                20.8419                 1.8176

                     43                     44                     45
                      A                      A                      A
 Frequencies --   1055.6489              1071.3606              1112.0489
 Red. masses --      1.4744                 1.7616                 2.0581
 Frc consts  --      0.9681                 1.1913                 1.4996
 IR Inten    --      0.2560                10.3953                 5.2442

                     46                     47                     48
                      A                      A                      A
 Frequencies --   1117.7595              1139.7464              1195.3088
 Red. masses --      2.3443                 2.3222                 2.1016
 Frc consts  --      1.7257                 1.7773                 1.7691
 IR Inten    --      1.7867                 1.8146                 7.7289

                     49                     50                     51
                      A                      A                      A
 Frequencies --   1219.2170              1227.4695              1258.5547
 Red. masses --      1.6891                 3.4390                 1.6505
 Frc consts  --      1.4794                 3.0529                 1.5404
 IR Inten    --      0.2223                14.2055                 2.9264

                     52                     53                     54
                      A                      A                      A
 Frequencies --   1311.2523              1341.8856              1344.9970
 Red. masses --      1.5754                 1.3172                 2.9392
 Frc consts  --      1.5959                 1.3974                 3.1327
 IR Inten    --     10.7601                 2.0702                 2.4264

                     55                     56                     57
                      A                      A                      A
 Frequencies --   1360.8701              1398.4405              1402.4446
 Red. masses --      1.5656                 1.2167                 1.5541
 Frc consts  --      1.7082                 1.4019                 1.8009
 IR Inten    --     11.4807                 6.8242                19.0232

                     58                     59                     60
                      A                      A                      A
 Frequencies --   1411.5115              1414.4285              1422.8236
 Red. masses --      1.2513                 1.3082                 1.2876
 Frc consts  --      1.4689                 1.5420                 1.5358
 IR Inten    --     10.8913                 2.5225                15.4358

                     61                     62                     63
                      A                      A                      A
 Frequencies --   1434.8131              1453.5498              1471.8734
 Red. masses --      3.2465                 2.9371                 2.0448
 Frc consts  --      3.9378                 3.6561                 2.6100
 IR Inten    --      0.9936                49.9921                18.7828

                     64                     65                     66
                      A                      A                      A
 Frequencies --   1483.4486              1485.7952              1486.9344
 Red. masses --      1.0439                 1.0434                 1.0428
 Frc consts  --      1.3535                 1.3571                 1.3585
 IR Inten    --      9.4116                 0.1473                 9.0637

                     67                     68                     69
                      A                      A                      A
 Frequencies --   1491.3846              1501.8056              1503.2404
 Red. masses --      1.0475                 1.1861                 1.0683
 Frc consts  --      1.3727                 1.5761                 1.4223
 IR Inten    --      1.1930                22.9512                12.1688

                     70                     71                     72
                      A                      A                      A
 Frequencies --   1505.6104              1508.1476              1561.3733
 Red. masses --      1.1425                 1.0661                 4.9541
 Frc consts  --      1.5259                 1.4287                 7.1159
 IR Inten    --      6.7296                 6.1472                25.0089

                     73                     74                     75
                      A                      A                      A
 Frequencies --   1566.9186              1600.4713              1646.8121
 Red. masses --      3.4146                 6.2284                 5.0922
 Frc consts  --      4.9395                 9.3999                 8.1366
 IR Inten    --     17.8827                52.6813                 7.6881

                     76                     77                     78
                      A                      A                      A
 Frequencies --   3008.3331              3018.7822              3021.5029
 Red. masses --      1.0388                 1.0346                 1.0669
 Frc consts  --      5.5391                 5.5550                 5.7387
 IR Inten    --     52.4657                25.5462                18.1477

                     79                     80                     81
                      A                      A                      A
 Frequencies --   3023.4543              3029.0598              3047.9312
 Red. masses --      1.0517                 1.0375                 1.1004
 Frc consts  --      5.6644                 5.6086                 6.0227
 IR Inten    --     29.0101                23.7345                22.6750

                     82                     83                     84
                      A                      A                      A
 Frequencies --   3077.8797              3078.2603              3084.6116
 Red. masses --      1.1019                 1.0996                 1.1008
 Frc consts  --      6.1504                 6.1391                 6.1708
 IR Inten    --      0.0264                11.8088                95.6600

                     85                     86                     87
                      A                      A                      A
 Frequencies --   3091.1230              3091.9961              3093.1796
 Red. masses --      1.1021                 1.0972                 1.1016
 Frc consts  --      6.2044                 6.1805                 6.2097
 IR Inten    --     20.9215                18.8217                27.9589

                     88                     89                     90
                      A                      A                      A
 Frequencies --   3113.8754              3124.2612              3139.8393
 Red. masses --      1.0995                 1.0854                 1.0852
 Frc consts  --      6.2815                 6.2422                 6.3036
 IR Inten    --     15.9223                13.7124                15.2175

                     91                     92                     93
                      A                      A                      A
 Frequencies --   3149.8423              3188.1195              3231.6130
 Red. masses --      1.0890                 1.0923                 1.0960
 Frc consts  --      6.3659                 6.5413                 6.7436
 IR Inten    --     29.8821                19.5529                 7.0640

 - Thermochemistry -
 -------------------
 Temperature   298.150 Kelvin.  Pressure   1.00000 Atm.
 Atom     1 has atomic number  6 and mass  12.00000

 Molecular mass:   198.14085 amu.
 Principal axes and moments of inertia in atomic units:
                           1         2         3
     Eigenvalues --  2229.206813767.393895580.87693
           X            0.99953   0.03074   0.00000
           Y           -0.03074   0.99953   0.00000
           Z            0.00000   0.00000   1.00000
 This molecule is an asymmetric top.
 Rotational symmetry number  1.
 Warning -- assumption of classical behavior for rotation
           may cause significant error
 Rotational temperatures (Kelvin)      0.03885     0.02299     0.01552
 Rotational constants (GHZ):           0.80959     0.47904     0.32338
 Zero-point vibrational energy     745851.2 (Joules/Mol)
                                  178.26271 (Kcal/Mol)
 Warning -- explicit consideration of  23 degrees of freedom as
           vibrations may cause significant error
 Vibrational temperatures:     51.13    94.09   147.35   162.09   187.28
          (Kelvin)            206.35   210.86   301.19   330.01   330.38
                              362.28   391.79   402.20   482.94   534.50
                              566.76   573.96   587.92   691.43   769.80
                              774.50   823.16   892.38   947.61   966.58
                             1021.55  1046.65  1099.41  1140.06  1203.45
                             1251.05  1297.99  1303.55  1334.53  1366.94
                             1373.24  1381.92  1414.96  1415.02  1460.11
                             1506.91  1513.19  1518.84  1541.45  1599.99
                             1608.20  1639.84  1719.78  1754.18  1766.05
                             1810.78  1886.60  1930.67  1935.15  1957.99
                             2012.04  2017.80  2030.85  2035.04  2047.12
                             2064.37  2091.33  2117.69  2134.35  2137.73
                             2139.36  2145.77  2160.76  2162.82  2166.23
                             2169.89  2246.47  2254.44  2302.72  2369.39
                             4328.31  4343.35  4347.26  4350.07  4358.14
                             4385.29  4428.38  4428.92  4438.06  4447.43
                             4448.69  4450.39  4480.17  4495.11  4517.52
                             4531.91  4586.99  4649.56

 Zero-point correction=                           0.284080 (Hartree/Particle)
 Thermal correction to Energy=                    0.299129
 Thermal correction to Enthalpy=                  0.300073
 Thermal correction to Gibbs Free Energy=         0.242362
 Sum of electronic and zero-point Energies=           -582.276882
 Sum of electronic and thermal Energies=              -582.261833
 Sum of electronic and thermal Enthalpies=            -582.260888
 Sum of electronic and thermal Free Energies=         -582.318600

                     E (Thermal)             CV                S
                      KCal/Mol        Cal/Mol-Kelvin    Cal/Mol-Kelvin
 Total                  187.706             58.135            121.464
 Electronic               0.000              0.000              0.000
 Translational            0.889              2.981             41.756
 Rotational               0.889              2.981             32.216
 Vibrational            185.929             52.174             47.491
 Vibration     1          0.594              1.982              5.493
 Vibration     2          0.597              1.971              4.287
 Vibration     3          0.604              1.947              3.408
 Vibration     4          0.607              1.939              3.223
 Vibration     5          0.612              1.923              2.944
 Vibration     6          0.616              1.910              2.758
 Vibration     7          0.617              1.906              2.716
 Vibration     8          0.642              1.826              2.049
 Vibration     9          0.652              1.796              1.884
 Vibration    10          0.652              1.796              1.882
 Vibration    11          0.664              1.760              1.718
 Vibration    12          0.675              1.724              1.582
 Vibration    13          0.680              1.711              1.536
 Vibration    14          0.717              1.604              1.233
 Vibration    15          0.743              1.531              1.074
 Vibration    16          0.761              1.483              0.985
 Vibration    17          0.765              1.472              0.967
 Vibration    18          0.773              1.451              0.931
 Vibration    19          0.837              1.293              0.709
 Vibration    20          0.890              1.173              0.576
 Vibration    21          0.893              1.165              0.569
 Vibration    22          0.928              1.092              0.500
 Vibration    23          0.980              0.989              0.416

 Optimization completed.
    -- Stationary point found.
 Normal termination of Gaussian 09 at Mon Mar  7 11:36:45 2022.
