 Gaussian 09, Revision D.01,
 Gaussian 09:  ES64L-G09RevD.01 24-Apr-2013

 ----------------------------------------------------------------------
 # opt freq b3lyp/6-311+g(d,p) geom=connectivity pop=(hirshfeld,chelpg,
 mbs,npa)
 ----------------------------------------------------------------------

 -------------------
 Title Card Required
 -------------------
 Symbolic Z-matrix:
 Charge =  0 Multiplicity = 1

 SCF Done:  E(RB3LYP) =  -461.406030913     A.U. after   13 cycles
 SCF Done:  E(RB3LYP) =  -461.413923616     A.U. after   12 cycles
 SCF Done:  E(RB3LYP) =  -461.414415262     A.U. after   11 cycles
 SCF Done:  E(RB3LYP) =  -461.414458182     A.U. after   10 cycles
 SCF Done:  E(RB3LYP) =  -461.414460800     A.U. after    8 cycles
 SCF Done:  E(RB3LYP) =  -461.414461365     A.U. after    8 cycles
 SCF Done:  E(RB3LYP) =  -461.414463111     A.U. after    9 cycles
 SCF Done:  E(RB3LYP) =  -461.414460087     A.U. after   10 cycles
 SCF Done:  E(RB3LYP) =  -461.409002740     A.U. after   13 cycles
 SCF Done:  E(RB3LYP) =  -461.414464527     A.U. after    8 cycles
 SCF Done:  E(RB3LYP) =  -461.379429084     A.U. after   13 cycles
 SCF Done:  E(RB3LYP) =  -461.415422082     A.U. after   10 cycles
 SCF Done:  E(RB3LYP) =  -461.418073922     A.U. after   13 cycles
 SCF Done:  E(RB3LYP) =  -461.422110468     A.U. after   14 cycles
 SCF Done:  E(RB3LYP) =  -461.422910001     A.U. after   11 cycles
 SCF Done:  E(RB3LYP) =  -461.423054055     A.U. after   11 cycles
 SCF Done:  E(RB3LYP) =  -461.423157689     A.U. after   11 cycles
 SCF Done:  E(RB3LYP) =  -461.423180214     A.U. after   10 cycles
 SCF Done:  E(RB3LYP) =  -461.423182645     A.U. after    9 cycles
 Optimization completed.
    -- Stationary point found.
 Normal termination of Gaussian 09 at Tue Nov  2 16:19:14 2021.

 ----------------------------------------------------------------------
 #N Geom=AllCheck Guess=TCheck SCRF=Check GenChk RB3LYP/6-311+G(d,p) Fr
 eq
 ----------------------------------------------------------------------

 Structure from the checkpoint file:  "Scheme2_1.chk"
 -------------------
 Title Card Required
 -------------------
 Charge =  0 Multiplicity = 1

                         Standard orientation:
 ---------------------------------------------------------------------
 Center     Atomic      Atomic             Coordinates (Angstroms)
 Number     Number       Type             X           Y           Z
 ---------------------------------------------------------------------
      1          6           0        0.000000    2.319521    0.000000
      2          6           0       -1.212535    1.638358    0.000174
      3          6           0       -1.207498    0.242213    0.000108
      4          6           0        0.000000   -0.467481    0.000000
      5          6           0        1.207498    0.242213   -0.000108
      6          6           0        1.212535    1.638358   -0.000174
      7          1           0        0.000000    3.403809    0.000000
      8          1           0       -2.160699    2.160592    0.000206
      9          1           0        0.000000   -1.546363    0.000000
     10          1           0        2.160699    2.160592   -0.000206
     11          8           0        2.435633   -0.357405   -0.000441
     12          8           0       -2.435633   -0.357405    0.000441
     13          6           0       -2.510937   -1.774797   -0.000438
     14          1           0       -2.044583   -2.203148    0.893955
     15          1           0       -3.572854   -2.015907   -0.000402
     16          1           0       -2.044650   -2.201781   -0.895414
     17          6           0        2.510937   -1.774797    0.000438
     18          1           0        3.572854   -2.015907    0.000402
     19          1           0        2.044651   -2.201782    0.895414
     20          1           0        2.044582   -2.203148   -0.893955
 ---------------------------------------------------------------------

 SCF Done:  E(RB3LYP) =  -461.423182645     A.U. after    1 cycles

 The electronic state is 1-A.
 Alpha  occ. eigenvalues --  -19.15735 -19.15735 -10.23858 -10.23858 -10.23023
 Alpha  occ. eigenvalues --  -10.23023 -10.17640 -10.17491 -10.16294 -10.16292
 Alpha  occ. eigenvalues --   -1.07343  -1.07162  -0.85464  -0.76917  -0.75181
 Alpha  occ. eigenvalues --   -0.72433  -0.68593  -0.60579  -0.59992  -0.55143
 Alpha  occ. eigenvalues --   -0.51276  -0.48984  -0.48248  -0.47910  -0.47366
 Alpha  occ. eigenvalues --   -0.45687  -0.43283  -0.41894  -0.39051  -0.38163
 Alpha  occ. eigenvalues --   -0.37244  -0.35357  -0.34467  -0.33634  -0.30534
 Alpha  occ. eigenvalues --   -0.24659  -0.21588
 Alpha virt. eigenvalues --   -0.00576  -0.00556   0.00206   0.01515   0.01717
 Alpha virt. eigenvalues --    0.02778   0.03501   0.03599   0.04006   0.05191
 Alpha virt. eigenvalues --    0.05895   0.06759   0.07356   0.07938   0.08106

 Mulliken charges:
               1
     1  C   -0.304921
     2  C    0.025399
     3  C   -1.002817
     4  C    1.699755
     5  C   -1.002817
     6  C    0.025399
     7  H    0.127336
     8  H    0.120853
     9  H    0.120399
    10  H    0.120853
    11  O   -0.173763
    12  O   -0.173763
    13  C   -0.232604
    14  H    0.140504
    15  H    0.160607
    16  H    0.140536
    17  C   -0.232604
    18  H    0.160607
    19  H    0.140536
    20  H    0.140504
 Sum of Mulliken charges =   0.00000

 Dipole moment (field-independent basis, Debye):
    X=              0.0000    Y=             -2.7302    Z=              0.0000  Tot=              2.7302
 Quadrupole moment (field-independent basis, Debye-Ang):
   XX=            -60.2222   YY=            -50.1046   ZZ=            -63.3203
   XY=              0.0000   XZ=              0.0058   YZ=              0.0000

  Exact polarizability: 123.930   0.000 120.449  -0.002   0.000  65.221
 Approx polarizability: 188.283   0.000 176.652  -0.011   0.000  97.243

 ESP charges:
               1
     1  C    0.085560
     2  C   -0.396957
     3  C    0.477693
     4  C   -0.426896
     5  C    0.477693
     6  C   -0.396957
     7  H    0.079823
     8  H    0.149905
     9  H    0.162894
    10  H    0.149905
    11  O   -0.412695
    12  O   -0.412695
    13  C    0.180448
    14  H    0.003083
    15  H    0.044858
    16  H    0.002972
    17  C    0.180448
    18  H    0.044858
    19  H    0.002972
    20  H    0.003083
 Sum of ESP charges =   0.00000

 Summary of Natural Population Analysis:

                                       Natural Population
                Natural  -----------------------------------------------
    Atom  No    Charge         Core      Valence    Rydberg      Total
 -----------------------------------------------------------------------
      C    1   -0.17058      1.99918     4.15448    0.01691     6.17058
      C    2   -0.27697      1.99906     4.25962    0.01829     6.27697
      C    3    0.34166      1.99881     3.63640    0.02313     5.65834
      C    4   -0.38055      1.99897     4.36830    0.01327     6.38055
      C    5    0.34166      1.99881     3.63640    0.02313     5.65834
      C    6   -0.27697      1.99906     4.25962    0.01829     6.27697
      H    7    0.20688      0.00000     0.79174    0.00138     0.79312
      H    8    0.21935      0.00000     0.77894    0.00171     0.78065
      H    9    0.21609      0.00000     0.78172    0.00219     0.78391
      H   10    0.21935      0.00000     0.77894    0.00171     0.78065
      O   11   -0.54166      1.99971     6.52439    0.01756     8.54166
      O   12   -0.54166      1.99971     6.52439    0.01756     8.54166
      C   13   -0.20796      1.99926     4.19298    0.01571     6.20796
      H   14    0.16846      0.00000     0.82921    0.00233     0.83154
      H   15    0.19273      0.00000     0.80619    0.00108     0.80727
      H   16    0.16848      0.00000     0.82919    0.00233     0.83152
      C   17   -0.20796      1.99926     4.19298    0.01571     6.20796
      H   18    0.19273      0.00000     0.80619    0.00108     0.80727
      H   19    0.16848      0.00000     0.82919    0.00233     0.83152
      H   20    0.16846      0.00000     0.82921    0.00233     0.83154
 =======================================================================
   * Total *    0.00000     19.99183    53.81009    0.19808    74.00000

                      1                      2                      3
                      A                      A                      A
 Frequencies --     70.2787                95.4527               174.4042
 Red. masses --      2.9479                 3.2728                 3.2055
 Frc consts  --      0.0086                 0.0176                 0.0574
 IR Inten    --      0.0000                 9.5709                 0.0160

                      4                      5                      6
                      A                      A                      A
 Frequencies --    186.4899               217.3417               258.3901
 Red. masses --      1.6893                 1.5778                 1.7873
 Frc consts  --      0.0346                 0.0439                 0.0703
 IR Inten    --      0.3018                 0.0000                 0.0000

                      7                      8                      9
                      A                      A                      A
 Frequencies --    277.0180               294.7639               449.1658
 Red. masses --      1.8336                 3.1046                 4.6021
 Frc consts  --      0.0829                 0.1589                 0.5470
 IR Inten    --      0.5001                 6.8397                 1.1391

                     10                     11                     12
                      A                      A                      A
 Frequencies --    463.2644               464.1168               534.8306
 Red. masses --      2.9316                 4.7589                 5.8705
 Frc consts  --      0.3707                 0.6040                 0.9894
 IR Inten    --      3.9038                 3.1055                 1.8425

                     13                     14                     15
                      A                      A                      A
 Frequencies --    580.1241               621.2345               691.5032
 Red. masses --      4.4466                 4.3986                 2.0177
 Frc consts  --      0.8817                 1.0002                 0.5685
 IR Inten    --      6.8008                 0.0000                19.4045

                     16                     17                     18
                      A                      A                      A
 Frequencies --    726.7817               777.7647               824.2883
 Red. masses --      6.2605                 1.2910                 1.8913
 Frc consts  --      1.9483                 0.4601                 0.7571
 IR Inten    --      0.0333                28.1130                52.9250

                     19                     20                     21
                      A                      A                      A
 Frequencies --    873.3521               940.2680               978.2636
 Red. masses --      1.4578                 4.1934                 1.2809
 Frc consts  --      0.6551                 2.1843                 0.7222
 IR Inten    --      0.0000                54.2981                 0.0941

                     22                     23                     24
                      A                      A                      A
 Frequencies --   1006.2462              1060.2241              1068.2209
 Red. masses --      6.1034                 5.7064                 3.0763
 Frc consts  --      3.6411                 3.7793                 2.0683
 IR Inten    --      0.6172                74.3052                12.9186

                     25                     26                     27
                      A                      A                      A
 Frequencies --   1102.7803              1168.1446              1168.5072
 Red. masses --      1.5852                 1.2736                 1.2732
 Frc consts  --      1.1358                 1.0240                 1.0243
 IR Inten    --     31.9410                 0.0000                 1.2228

                     28                     29                     30
                      A                      A                      A
 Frequencies --   1169.8921              1189.8018              1203.0589
 Red. masses --      1.2301                 1.4661                 1.4056
 Frc consts  --      0.9919                 1.2228                 1.1986
 IR Inten    --     76.2880                35.6804                 0.6217

                     31                     32                     33
                      A                      A                      A
 Frequencies --   1228.6440              1311.8399              1313.5322
 Red. masses --      2.0508                 1.8825                 5.8206
 Frc consts  --      1.8240                 1.9087                 5.9170
 IR Inten    --    149.9109                 0.7236               267.9655

                     34                     35                     36
                      A                      A                      A
 Frequencies --   1358.0642              1455.2269              1470.9445
 Red. masses --      2.9022                 1.9216                 1.1666
 Frc consts  --      3.1536                 2.3975                 1.4872
 IR Inten    --      1.5945                 4.7044                26.4675

                     37                     38                     39
                      A                      A                      A
 Frequencies --   1492.0377              1492.1125              1494.0204
 Red. masses --      1.5064                 1.0541                 1.0460
 Frc consts  --      1.9759                 1.3827                 1.3756
 IR Inten    --      8.8116                 0.1963                18.8273

                     40                     41                     42
                      A                      A                      A
 Frequencies --   1502.0552              1507.2609              1527.6101
 Red. masses --      1.0963                 1.0901                 2.2294
 Frc consts  --      1.4573                 1.4591                 3.0652
 IR Inten    --     73.6767                33.3901                75.1820

                     43                     44                     45
                      A                      A                      A
 Frequencies --   1632.9657              1636.8542              2999.8573
 Red. masses --      5.5792                 6.9987                 1.0348
 Frc consts  --      8.7655                11.0481                 5.4867
 IR Inten    --    217.0538                89.8296                 1.8669

                     46                     47                     48
                      A                      A                      A
 Frequencies --   3001.0802              3057.1526              3057.9065
 Red. masses --      1.0350                 1.1059                 1.1060
 Frc consts  --      5.4922                 6.0899                 6.0932
 IR Inten    --    100.8293                 0.0037                79.5427

                     49                     50                     51
                      A                      A                      A
 Frequencies --   3130.7481              3131.0166              3172.2844
 Red. masses --      1.0984                 1.0985                 1.0877
 Frc consts  --      6.3434                 6.3447                 6.4492
 IR Inten    --     40.9496                 3.5246                10.5140

                     52                     53                     54
                      A                      A                      A
 Frequencies --   3198.7078              3203.5684              3232.9154
 Red. masses --      1.0913                 1.0955                 1.0886
 Frc consts  --      6.5787                 6.6244                 6.7037
 IR Inten    --      5.9555                 3.2673                 2.3577

 - Thermochemistry -
 -------------------
 Temperature   298.150 Kelvin.  Pressure   1.00000 Atm.
 Atom     1 has atomic number  6 and mass  12.00000

 Molecular mass:   138.06808 amu.
 Principal axes and moments of inertia in atomic units:
                           1         2         3
     Eigenvalues --   952.939881666.216172596.10904
           X            1.00000   0.00000   0.00002
           Y            0.00000   1.00000   0.00000
           Z           -0.00002   0.00000   1.00000
 This molecule is an asymmetric top.
 Rotational symmetry number  1.
 Warning -- assumption of classical behavior for rotation
           may cause significant error
 Rotational temperatures (Kelvin)      0.09089     0.05198     0.03336
 Rotational constants (GHZ):           1.89387     1.08314     0.69517
 Zero-point vibrational energy     432117.3 (Joules/Mol)
                                  103.27852 (Kcal/Mol)
 Warning -- explicit consideration of  13 degrees of freedom as
           vibrations may cause significant error
 Vibrational temperatures:    101.12   137.34   250.93   268.32   312.71
          (Kelvin)            371.77   398.57   424.10   646.25   666.53
                              667.76   769.50   834.67   893.82   994.92
                             1045.68  1119.03  1185.97  1256.56  1352.83
                             1407.50  1447.76  1525.42  1536.93  1586.65
                             1680.70  1681.22  1683.21  1711.86  1730.93
                             1767.74  1887.44  1889.88  1953.95  2093.74
                             2116.36  2146.71  2146.81  2149.56  2161.12
                             2168.61  2197.89  2349.47  2355.07  4316.12
                             4317.88  4398.56  4399.64  4504.44  4504.83
                             4564.20  4602.22  4609.21  4651.44

 Zero-point correction=                           0.164585 (Hartree/Particle)
 Thermal correction to Energy=                    0.174134
 Thermal correction to Enthalpy=                  0.175078
 Thermal correction to Gibbs Free Energy=         0.129757
 Sum of electronic and zero-point Energies=           -461.258598
 Sum of electronic and thermal Energies=              -461.249049
 Sum of electronic and thermal Enthalpies=            -461.248105
 Sum of electronic and thermal Free Energies=         -461.293425

                     E (Thermal)             CV                S
                      KCal/Mol        Cal/Mol-Kelvin    Cal/Mol-Kelvin
 Total                  109.271             35.814             95.385
 Electronic               0.000              0.000              0.000
 Translational            0.889              2.981             40.680
 Rotational               0.889              2.981             29.801
 Vibrational            107.493             29.853             24.904
 Vibration     1          0.598              1.968              4.146
 Vibration     2          0.603              1.952              3.545
 Vibration     3          0.627              1.874              2.387
 Vibration     4          0.632              1.858              2.262
 Vibration     5          0.646              1.815              1.981
 Vibration     6          0.667              1.749              1.673
 Vibration     7          0.678              1.716              1.552
 Vibration     8          0.689              1.683              1.446
 Vibration     9          0.808              1.363              0.798
 Vibration    10          0.821              1.332              0.757
 Vibration    11          0.822              1.330              0.754
 Vibration    12          0.890              1.173              0.577
 Vibration    13          0.937              1.074              0.485

 Optimization completed.
    -- Stationary point found.
 Normal termination of Gaussian 09 at Tue Nov  2 16:21:57 2021.
