 Gaussian 09, Revision D.01,
 Gaussian 09:  ES64L-G09RevD.01 24-Apr-2013

 ----------------------------------------------------------------------
 # opt freq=noraman b3lyp/6-311+g(d,p) pop=(npa,hirshfeld,chelpg,mbs) g
 eom=connectivity
 ----------------------------------------------------------------------

 -------------------
 Title Card Required
 -------------------
 Symbolic Z-matrix:
 Charge =  0 Multiplicity = 1

 SCF Done:  E(RB3LYP) =  -1093.16739687     A.U. after   16 cycles
 SCF Done:  E(RB3LYP) =  -1093.21172259     A.U. after   16 cycles
 SCF Done:  E(RB3LYP) =  -1093.20871387     A.U. after   15 cycles
 SCF Done:  E(RB3LYP) =  -1093.21310094     A.U. after   12 cycles
 SCF Done:  E(RB3LYP) =  -1093.23239405     A.U. after   14 cycles
 SCF Done:  E(RB3LYP) =  -1093.23505709     A.U. after   14 cycles
 SCF Done:  E(RB3LYP) =  -1093.23664168     A.U. after   14 cycles
 SCF Done:  E(RB3LYP) =  -1093.23955130     A.U. after   13 cycles
 SCF Done:  E(RB3LYP) =  -1093.24123564     A.U. after   15 cycles
 SCF Done:  E(RB3LYP) =  -1093.24313709     A.U. after   15 cycles
 SCF Done:  E(RB3LYP) =  -1093.24399870     A.U. after   15 cycles
 SCF Done:  E(RB3LYP) =  -1093.24432760     A.U. after   12 cycles
 SCF Done:  E(RB3LYP) =  -1093.24444063     A.U. after   12 cycles
 SCF Done:  E(RB3LYP) =  -1093.24451848     A.U. after   12 cycles
 SCF Done:  E(RB3LYP) =  -1093.24454287     A.U. after   12 cycles
 SCF Done:  E(RB3LYP) =  -1093.24454681     A.U. after   10 cycles
 SCF Done:  E(RB3LYP) =  -1093.24454770     A.U. after    9 cycles
 SCF Done:  E(RB3LYP) =  -1093.24454793     A.U. after    8 cycles
 SCF Done:  E(RB3LYP) =  -1093.24454797     A.U. after    8 cycles
 Optimization completed.
    -- Stationary point found.
 Normal termination of Gaussian 09 at Tue Apr 23 14:52:11 2024.

 ----------------------------------------------------------------------
 #N Geom=AllCheck Guess=TCheck SCRF=Check GenChk RB3LYP/6-311+G(d,p) Fr
 eq
 ----------------------------------------------------------------------

 Structure from the checkpoint file:  "86.chk"
 -------------------
 Title Card Required
 -------------------
 Charge =  0 Multiplicity = 1

                         Standard orientation:
 ---------------------------------------------------------------------
 Center     Atomic      Atomic             Coordinates (Angstroms)
 Number     Number       Type             X           Y           Z
 ---------------------------------------------------------------------
      1          6           0       -2.197769   -0.707711   -0.000139
      2          6           0       -1.112972    0.182157   -0.000196
      3          6           0       -1.351942    1.562611   -0.000118
      4          6           0       -2.664942    2.025731    0.000065
      5          6           0       -3.752350    1.155506    0.000134
      6          6           0       -3.492466   -0.210474    0.000002
      7          1           0       -2.032363   -1.778693   -0.000162
      8          1           0       -0.520715    2.250090   -0.000203
      9          1           0       -2.843328    3.095061    0.000162
     10          7           0        0.172245   -0.386722   -0.000386
     11          1           0        0.224271   -1.394242   -0.000412
     12          6           0        1.393315    0.251065   -0.000130
     13          8           0        1.567345    1.449568    0.000018
     14          8           0        2.357008   -0.698145    0.000009
     15          6           0        3.794855   -0.344074    0.000077
     16          6           0        4.469384   -1.716014    0.000159
     17          1           0        5.555367   -1.596174    0.000142
     18          1           0        4.184445   -2.286834    0.886785
     19          1           0        4.184405   -2.286862   -0.886433
     20          6           0        4.141303    0.432457   -1.272197
     21          1           0        3.829521   -0.127689   -2.157513
     22          1           0        3.661817    1.409999   -1.284246
     23          1           0        5.224237    0.573407   -1.324976
     24          6           0        4.141046    0.432548    1.272354
     25          1           0        3.828801   -0.127415    2.157623
     26          1           0        5.223988    0.573271    1.325531
     27          1           0        3.661733    1.410185    1.284094
     28         17           0       -4.836322   -1.348441    0.000103
     29          1           0       -4.770003    1.522253    0.000268
 ---------------------------------------------------------------------

 SCF Done:  E(RB3LYP) =  -1093.24454797     A.U. after    1 cycles

 The electronic state is 1-A.
 Alpha  occ. eigenvalues -- -101.55582 -19.16851 -19.11044 -14.36758 -10.33691
 Alpha  occ. eigenvalues --  -10.25604 -10.24484 -10.24204 -10.19402 -10.19003
 Alpha  occ. eigenvalues --  -10.18595 -10.17987 -10.17321 -10.16781 -10.16780
 Alpha  occ. eigenvalues --   -9.47040  -7.23497  -7.22524  -7.22493  -1.11811
 Alpha  occ. eigenvalues --   -1.03143  -0.96413  -0.89570  -0.84273  -0.82160
 Alpha  occ. eigenvalues --   -0.76706  -0.74355  -0.70670  -0.70490  -0.67162
 Alpha  occ. eigenvalues --   -0.63492  -0.60792  -0.57370  -0.54346  -0.52135
 Alpha  occ. eigenvalues --   -0.51041  -0.48944  -0.48012  -0.47306  -0.45595
 Alpha  occ. eigenvalues --   -0.45481  -0.45312  -0.43764  -0.42630  -0.41527
 Alpha  occ. eigenvalues --   -0.40387  -0.39799  -0.38900  -0.38045  -0.37309
 Alpha  occ. eigenvalues --   -0.37152  -0.36867  -0.35369  -0.35031  -0.31996
 Alpha  occ. eigenvalues --   -0.31758  -0.31320  -0.28972  -0.26008  -0.23691
 Alpha virt. eigenvalues --   -0.02984  -0.02605  -0.00944   0.00265   0.01039
 Alpha virt. eigenvalues --    0.01513   0.02278   0.02754   0.02885   0.03831
 Alpha virt. eigenvalues --    0.04228   0.04563   0.04820   0.04924   0.05589

 Mulliken charges:
               1
     1  C   -0.740319
     2  C   -0.466812
     3  C    0.774786
     4  C   -0.625614
     5  C   -0.610961
     6  C    0.677674
     7  H    0.121704
     8  H    0.165942
     9  H    0.134793
    10  N   -0.325898
    11  H    0.301586
    12  C    0.264343
    13  O   -0.279372
    14  O    0.042909
    15  C   -0.283587
    16  C   -0.368557
    17  H    0.146940
    18  H    0.152064
    19  H    0.152064
    20  C   -0.344121
    21  H    0.150487
    22  H    0.182727
    23  H    0.141022
    24  C   -0.344154
    25  H    0.150489
    26  H    0.141016
    27  H    0.182733
    28  Cl   0.360942
    29  H    0.145175
 Sum of Mulliken charges =   0.00000

 Dipole moment (field-independent basis, Debye):
    X=              2.6821    Y=             -1.0569    Z=             -0.0002  Tot=              2.8829
 Quadrupole moment (field-independent basis, Debye-Ang):
   XX=            -92.7974   YY=            -94.9968   ZZ=            -99.6380
   XY=             -8.0102   XZ=             -0.0008   YZ=              0.0005

  Exact polarizability: 226.768   3.053 156.089  -0.017  -0.022 104.906
 Approx polarizability: 286.729   8.914 256.097  -0.007   0.006 152.951

 ESP charges:
               1
     1  C   -0.283567
     2  C    0.473003
     3  C   -0.265072
     4  C   -0.059885
     5  C   -0.150032
     6  C    0.158740
     7  H    0.132743
     8  H    0.156120
     9  H    0.104840
    10  N   -0.835926
    11  H    0.412106
    12  C    1.045757
    13  O   -0.600012
    14  O   -0.678391
    15  C    0.835878
    16  C   -0.354851
    17  H    0.062668
    18  H    0.083865
    19  H    0.083861
    20  C   -0.359675
    21  H    0.068069
    22  H    0.087792
    23  H    0.064489
    24  C   -0.359694
    25  H    0.068079
    26  H    0.064482
    27  H    0.087799
    28  Cl  -0.151212
    29  H    0.108026
 Sum of ESP charges =   0.00000

 Summary of Natural Population Analysis:

                                       Natural Population
                Natural  -----------------------------------------------
    Atom  No    Charge         Core      Valence    Rydberg      Total
 -----------------------------------------------------------------------
      C    1   -0.26397      1.99889     4.24771    0.01737     6.26397
      C    2    0.17995      1.99898     3.80123    0.01985     5.82005
      C    3   -0.24274      1.99907     4.22721    0.01646     6.24274
      C    4   -0.16602      1.99917     4.14975    0.01710     6.16602
      C    5   -0.25346      1.99896     4.23486    0.01964     6.25346
      C    6   -0.02053      1.99858     3.99876    0.02319     6.02053
      H    7    0.21794      0.00000     0.78003    0.00203     0.78206
      H    8    0.24925      0.00000     0.74888    0.00186     0.75075
      H    9    0.21156      0.00000     0.78698    0.00146     0.78844
      N   10   -0.61593      1.99926     5.60206    0.01462     7.61593
      H   11    0.40350      0.00000     0.59306    0.00344     0.59650
      C   12    0.93392      1.99943     3.01708    0.04956     5.06608
      O   13   -0.64581      1.99973     6.63543    0.01065     8.64581
      O   14   -0.60603      1.99970     6.58787    0.01847     8.60603
      C   15    0.27585      1.99911     3.70411    0.02093     5.72415
      C   16   -0.58212      1.99924     4.57071    0.01216     6.58212
      H   17    0.20667      0.00000     0.79227    0.00107     0.79333
      H   18    0.20939      0.00000     0.78923    0.00138     0.79061
      H   19    0.20939      0.00000     0.78923    0.00138     0.79061
      C   20   -0.60619      1.99923     4.59553    0.01143     6.60619
      H   21    0.20686      0.00000     0.79181    0.00133     0.79314
      H   22    0.23070      0.00000     0.76787    0.00143     0.76930
      H   23    0.20742      0.00000     0.79144    0.00114     0.79258
      C   24   -0.60620      1.99923     4.59554    0.01143     6.60620
      H   25    0.20686      0.00000     0.79181    0.00133     0.79314
      H   26    0.20741      0.00000     0.79145    0.00114     0.79259
      H   27    0.23071      0.00000     0.76787    0.00143     0.76929
     Cl   28   -0.00218      9.99962     6.98289    0.01967    17.00218
      H   29    0.22381      0.00000     0.77455    0.00164     0.77619
 =======================================================================
   * Total *    0.00000     37.98819    81.70721    0.30460   120.00000

                      1                      2                      3
                      A                      A                      A
 Frequencies --     21.5996                38.7993                75.1148
 Red. masses --      4.0769                 4.4417                 5.6651
 Frc consts  --      0.0011                 0.0039                 0.0188
 IR Inten    --      0.3452                 1.0928                 3.8004

                      4                      5                      6
                      A                      A                      A
 Frequencies --     79.9987               113.3410               174.4347
 Red. masses --      5.3375                 3.8940                 5.8638
 Frc consts  --      0.0201                 0.0295                 0.1051
 IR Inten    --      0.3620                 0.7630                 4.2667

                      7                      8                      9
                      A                      A                      A
 Frequencies --    184.4546               204.1101               227.8057
 Red. masses --      5.6733                 1.0844                 3.6730
 Frc consts  --      0.1137                 0.0266                 0.1123
 IR Inten    --      0.2879                 0.1867                 3.0923

                     10                     11                     12
                      A                      A                      A
 Frequencies --    241.6912               252.8659               265.6367
 Red. masses --      4.4809                 1.1301                 1.0639
 Frc consts  --      0.1542                 0.0426                 0.0442
 IR Inten    --      0.4593                 0.6346                 0.0616

                     13                     14                     15
                      A                      A                      A
 Frequencies --    275.4808               329.3053               348.1634
 Red. masses --      4.6235                 3.3744                 2.5309
 Frc consts  --      0.2067                 0.2156                 0.1808
 IR Inten    --      3.3297                12.0975                 1.2167

                     16                     17                     18
                      A                      A                      A
 Frequencies --    382.5183               424.1575               435.7277
 Red. masses --      5.5854                 4.0882                 4.4773
 Frc consts  --      0.4815                 0.4333                 0.5008
 IR Inten    --      1.7697                 5.6568                 2.2071

                     19                     20                     21
                      A                      A                      A
 Frequencies --    448.2868               456.4881               457.2079
 Red. masses --      3.0432                 2.7281                 2.9025
 Frc consts  --      0.3603                 0.3349                 0.3575
 IR Inten    --      1.8188                 4.0939                 3.6892

                     22                     23                     24
                      A                      A                      A
 Frequencies --    558.9147               582.8718               612.4416
 Red. masses --      1.1087                 5.3334                 5.2128
 Frc consts  --      0.2041                 1.0676                 1.1520
 IR Inten    --     66.2351                 0.1027                 0.0362

                     25                     26                     27
                      A                      A                      A
 Frequencies --    692.1389               697.1495               759.1358
 Red. masses --      7.0344                 2.3069                 5.7727
 Frc consts  --      1.9855                 0.6606                 1.9601
 IR Inten    --      6.7394                21.0631                15.7478

                     28                     29                     30
                      A                      A                      A
 Frequencies --    770.4598               789.6590               792.3363
 Red. masses --      9.9275                 5.0325                 1.3645
 Frc consts  --      3.4721                 1.8489                 0.5047
 IR Inten    --     10.7352                 4.6444                44.7102

                     31                     32                     33
                      A                      A                      A
 Frequencies --    855.4822               860.4970               912.0299
 Red. masses --      4.2437                 1.5570                 1.3709
 Frc consts  --      1.8299                 0.6793                 0.6719
 IR Inten    --    121.9004                24.8564                 1.2682

                     34                     35                     36
                      A                      A                      A
 Frequencies --    913.2297               925.4049               930.3621
 Red. masses --      5.2905                 1.6425                 1.6531
 Frc consts  --      2.5996                 0.8287                 0.8430
 IR Inten    --      3.2603                 0.0240                 0.0495

                     37                     38                     39
                      A                      A                      A
 Frequencies --    970.4112               996.3244              1008.1298
 Red. masses --      1.2005                 1.2984                 5.9344
 Frc consts  --      0.6661                 0.7594                 3.5535
 IR Inten    --      0.0764                 0.7198                12.6153

                     40                     41                     42
                      A                      A                      A
 Frequencies --   1048.9413              1051.1256              1074.5850
 Red. masses --      1.8643                 1.4094                 3.5167
 Frc consts  --      1.2086                 0.9175                 2.3926
 IR Inten    --     15.4590                 0.6627                85.2780

                     43                     44                     45
                      A                      A                      A
 Frequencies --   1098.9520              1121.6428              1177.9488
 Red. masses --      1.9138                 1.5697                 2.4948
 Frc consts  --      1.3618                 1.1635                 2.0395
 IR Inten    --     37.5000                55.4523               824.7874

                     46                     47                     48
                      A                      A                      A
 Frequencies --   1193.3623              1236.5765              1261.8193
 Red. masses --      1.1231                 2.3281                 2.8251
 Frc consts  --      0.9424                 2.0974                 2.6502
 IR Inten    --      0.2953               188.2872                53.6108

                     49                     50                     51
                      A                      A                      A
 Frequencies --   1265.3842              1280.3247              1328.5145
 Red. masses --      2.7502                 2.8830                 1.8668
 Frc consts  --      2.5946                 2.7844                 1.9412
 IR Inten    --     15.4909                12.3530                64.8027

                     52                     53                     54
                      A                      A                      A
 Frequencies --   1341.6397              1400.6531              1403.3883
 Red. masses --      3.1095                 1.2690                 1.2709
 Frc consts  --      3.2977                 1.4668                 1.4747
 IR Inten    --     17.7807                21.5538                22.8070

                     55                     56                     57
                      A                      A                      A
 Frequencies --   1429.1369              1434.0474              1470.5298
 Red. masses --      1.2431                 2.6494                 1.0451
 Frc consts  --      1.4959                 3.2102                 1.3315
 IR Inten    --     40.8242               144.7440                 0.2636

                     58                     59                     60
                      A                      A                      A
 Frequencies --   1490.9388              1492.2182              1497.1380
 Red. masses --      1.0447                 1.0507                 1.0685
 Frc consts  --      1.3683                 1.3785                 1.4110
 IR Inten    --      0.4326                 1.1347                22.8406

                     61                     62                     63
                      A                      A                      A
 Frequencies --   1503.5360              1513.4060              1525.6894
 Red. masses --      1.0525                 2.4549                 1.0568
 Frc consts  --      1.4019                 3.3128                 1.4494
 IR Inten    --      2.4847               137.0012                 8.8128

                     64                     65                     66
                      A                      A                      A
 Frequencies --   1554.0207              1620.7125              1637.3108
 Red. masses --      2.2097                 4.5289                 6.0289
 Frc consts  --      3.1441                 7.0089                 9.5225
 IR Inten    --    462.5539               165.8064               143.5082

                     67                     68                     69
                      A                      A                      A
 Frequencies --   1777.2881              3034.5189              3035.4769
 Red. masses --      9.8972                 1.0352                 1.0373
 Frc consts  --     18.4195                 5.6163                 5.6315
 IR Inten    --    258.1775                 9.1207                23.7808

                     70                     71                     72
                      A                      A                      A
 Frequencies --   3042.9311              3095.4551              3097.4028
 Red. masses --      1.0375                 1.1020                 1.1018
 Frc consts  --      5.6601                 6.2214                 6.2282
 IR Inten    --     23.0003                 6.0279                16.4869

                     73                     74                     75
                      A                      A                      A
 Frequencies --   3108.3566              3110.5218              3136.6472
 Red. masses --      1.1028                 1.1017                 1.1003
 Frc consts  --      6.2779                 6.2804                 6.3782
 IR Inten    --     29.8806                46.6035                 0.5415

                     76                     77                     78
                      A                      A                      A
 Frequencies --   3140.0868              3177.6786              3182.1521
 Red. masses --      1.0997                 1.0892                 1.0914
 Frc consts  --      6.3884                 6.4800                 6.5116
 IR Inten    --     13.8978                 9.5878                 2.2640

                     79                     80                     81
                      A                      A                      A
 Frequencies --   3209.1497              3245.3064              3625.1390
 Red. masses --      1.0940                 1.0924                 1.0766
 Frc consts  --      6.6380                 6.7787                 8.3358
 IR Inten    --      1.4249                 6.5570                34.8750

 - Thermochemistry -
 -------------------
 Temperature   298.150 Kelvin.  Pressure   1.00000 Atm.
 Atom     1 has atomic number  6 and mass  12.00000

 Molecular mass:   227.07131 amu.
 Principal axes and moments of inertia in atomic units:
                           1         2         3
     Eigenvalues --  1238.526799123.522299957.23305
           X            0.99989  -0.01464   0.00000
           Y            0.01464   0.99989   0.00000
           Z            0.00000   0.00000   1.00000
 This molecule is an asymmetric top.
 Rotational symmetry number  1.
 Warning -- assumption of classical behavior for rotation
           may cause significant error
 Rotational temperatures (Kelvin)      0.06993     0.00949     0.00870
 Rotational constants (GHZ):           1.45717     0.19781     0.18125
 Zero-point vibrational energy     613300.4 (Joules/Mol)
                                  146.58231 (Kcal/Mol)
 Warning -- explicit consideration of  24 degrees of freedom as
           vibrations may cause significant error
 Vibrational temperatures:     31.08    55.82   108.07   115.10   163.07
          (Kelvin)            250.97   265.39   293.67   327.76   347.74
                              363.82   382.19   396.35   473.80   500.93
                              550.36   610.27   626.91   644.98   656.78
                              657.82   804.15   838.62   881.17   995.83
                             1003.04  1092.23  1108.52  1136.14  1139.99
                             1230.85  1238.06  1312.21  1313.93  1331.45
                             1338.58  1396.20  1433.49  1450.47  1509.19
                             1512.33  1546.09  1581.14  1613.79  1694.80
                             1716.98  1779.16  1815.47  1820.60  1842.10
                             1911.43  1930.32  2015.22  2019.16  2056.21
                             2063.27  2115.76  2145.13  2146.97  2154.04
                             2163.25  2177.45  2195.12  2235.89  2331.84
                             2355.72  2557.12  4365.99  4367.37  4378.09
                             4453.66  4456.47  4472.23  4475.34  4512.93
                             4517.88  4571.97  4578.40  4617.24  4669.27
                             5215.76

 Zero-point correction=                           0.233594 (Hartree/Particle)
 Thermal correction to Energy=                    0.248859
 Thermal correction to Enthalpy=                  0.249803
 Thermal correction to Gibbs Free Energy=         0.189967
 Sum of electronic and zero-point Energies=          -1093.010954
 Sum of electronic and thermal Energies=             -1092.995689
 Sum of electronic and thermal Enthalpies=           -1092.994745
 Sum of electronic and thermal Free Energies=        -1093.054581

                     E (Thermal)             CV                S
                      KCal/Mol        Cal/Mol-Kelvin    Cal/Mol-Kelvin
 Total                  156.161             57.495            125.936
 Electronic               0.000              0.000              0.000
 Translational            0.889              2.981             42.163
 Rotational               0.889              2.981             33.086
 Vibrational            154.384             51.534             50.687
 Vibration     1          0.593              1.985              6.481
 Vibration     2          0.594              1.981              5.319
 Vibration     3          0.599              1.966              4.015
 Vibration     4          0.600              1.963              3.891
 Vibration     5          0.607              1.938              3.211
 Vibration     6          0.627              1.874              2.387
 Vibration     7          0.631              1.861              2.283
 Vibration     8          0.640              1.834              2.096
 Vibration     9          0.651              1.799              1.896
 Vibration    10          0.658              1.776              1.790
 Vibration    11          0.664              1.758              1.711
 Vibration    12          0.671              1.736              1.624
 Vibration    13          0.677              1.719              1.562
 Vibration    14          0.712              1.617              1.263
 Vibration    15          0.726              1.579              1.174
 Vibration    16          0.752              1.507              1.029
 Vibration    17          0.786              1.418              0.878
 Vibration    18          0.796              1.392              0.840
 Vibration    19          0.807              1.365              0.801
 Vibration    20          0.815              1.347              0.776
 Vibration    21          0.815              1.345              0.774
 Vibration    22          0.914              1.120              0.526
 Vibration    23          0.940              1.068              0.480
 Vibration    24          0.972              1.006              0.429

 Optimization completed.
    -- Stationary point found.
 Normal termination of Gaussian 09 at Tue Apr 23 15:01:09 2024.
