 Gaussian 09, Revision D.01,
 Gaussian 09:  ES64L-G09RevD.01 24-Apr-2013

 ----------------------------------------------------------------------
 # opt=rcfc freq=noraman b3lyp/6-311+g(d,p) pop=(npa,hirshfeld,chelpg,m
 bs) geom=connectivity
 ----------------------------------------------------------------------

 --------
 Table4_5
 --------
 Symbolic Z-matrix:
 Charge =  0 Multiplicity = 1

 SCF Done:  E(RB3LYP) =  -499.585866749     A.U. after   15 cycles
 SCF Done:  E(RB3LYP) =  -499.585866770     A.U. after    8 cycles
 Optimization completed.
    -- Stationary point found.
 Normal termination of Gaussian 09 at Tue Jan  3 11:26:11 2023.

 ----------------------------------------------------------------------
 #N Geom=AllCheck Guess=TCheck SCRF=Check GenChk RB3LYP/6-311+G(d,p) Fr
 eq
 ----------------------------------------------------------------------

 Structure from the checkpoint file:  "Table4_5.chk"
 --------
 Table4_5
 --------
 Charge =  0 Multiplicity = 1

                         Standard orientation:
 ---------------------------------------------------------------------
 Center     Atomic      Atomic             Coordinates (Angstroms)
 Number     Number       Type             X           Y           Z
 ---------------------------------------------------------------------
      1          6           0       -2.488363    0.994587    0.000040
      2          6           0       -1.440849    1.911734   -0.000034
      3          6           0       -0.120116    1.470372   -0.000059
      4          6           0        0.143446    0.097743   -0.000009
      5          6           0       -0.916993   -0.816694    0.000065
      6          6           0       -2.242383   -0.385382    0.000091
      7          1           0       -3.513235    1.353181    0.000059
      8          1           0       -1.654288    2.974733   -0.000072
      9          1           0        0.699033    2.176786   -0.000117
     10          1           0       -0.682331   -1.874783    0.000104
     11          6           0        1.530334   -0.448615   -0.000032
     12          8           0        1.805373   -1.627483    0.000009
     13          8           0        2.470548    0.522828   -0.000103
     14          6           0       -3.386725   -1.370559    0.000170
     15          1           0       -3.023909   -2.399794    0.000231
     16          1           0       -4.021880   -1.238112    0.881366
     17          1           0       -4.021903   -1.238226   -0.881027
     18          6           0        3.836485    0.072937   -0.000129
     19          1           0        4.439842    0.978204   -0.000188
     20          1           0        4.041168   -0.525705    0.888578
     21          1           0        4.041109   -0.525782   -0.888797
 ---------------------------------------------------------------------

 SCF Done:  E(RB3LYP) =  -499.585866770     A.U. after    1 cycles

 The electronic state is 1-A.
 Alpha  occ. eigenvalues --  -19.17194 -19.11219 -10.30475 -10.22818 -10.19515
 Alpha  occ. eigenvalues --  -10.19431 -10.18628 -10.18599 -10.18516 -10.18285
 Alpha  occ. eigenvalues --  -10.17470  -1.11221  -1.02372  -0.87422  -0.79335
 Alpha  occ. eigenvalues --   -0.77060  -0.73213  -0.69611  -0.63756  -0.60605
 Alpha  occ. eigenvalues --   -0.56975  -0.53402  -0.49657  -0.48931  -0.48717
 Alpha  occ. eigenvalues --   -0.46280  -0.44906  -0.43126  -0.43008  -0.41984
 Alpha  occ. eigenvalues --   -0.41085  -0.39553  -0.37017  -0.36332  -0.36264
 Alpha  occ. eigenvalues --   -0.35167  -0.31371  -0.28619  -0.26720  -0.25820
 Alpha virt. eigenvalues --   -0.05824  -0.01954   0.00129   0.01030   0.01714
 Alpha virt. eigenvalues --    0.02807   0.03473   0.04087   0.04120   0.04499
 Alpha virt. eigenvalues --    0.05463   0.05657   0.05853   0.06937   0.07838

 Mulliken charges:
               1
     1  C   -0.387928
     2  C   -0.097606
     3  C   -0.391598
     4  C    0.249249
     5  C   -0.196702
     6  C    0.259028
     7  H    0.126130
     8  H    0.127505
     9  H    0.142105
    10  H    0.140694
    11  C    0.148015
    12  O   -0.290771
    13  O   -0.148223
    14  C   -0.455637
    15  H    0.142663
    16  H    0.157248
    17  H    0.157251
    18  C   -0.150685
    19  H    0.151655
    20  H    0.158803
    21  H    0.158803
 Sum of Mulliken charges =   0.00000

 Dipole moment (field-independent basis, Debye):
    X=             -0.6945    Y=              1.6763    Z=              0.0000  Tot=              1.8144
 Quadrupole moment (field-independent basis, Debye-Ang):
   XX=            -51.4415   YY=            -66.2313   ZZ=            -67.3947
   XY=              3.8770   XZ=             -0.0007   YZ=             -0.0002

  Exact polarizability: 153.102   0.084 118.317  -0.003  -0.002  67.602
 Approx polarizability: 206.620  -4.499 198.646  -0.003  -0.004 102.015

 ESP charges:
               1
     1  C   -0.193667
     2  C   -0.050605
     3  C   -0.095686
     4  C   -0.105930
     5  C   -0.151440
     6  C    0.211680
     7  H    0.115846
     8  H    0.086752
     9  H    0.078938
    10  H    0.100291
    11  C    0.712128
    12  O   -0.538415
    13  O   -0.357275
    14  C   -0.253536
    15  H    0.083870
    16  H    0.068733
    17  H    0.068707
    18  C    0.011707
    19  H    0.072670
    20  H    0.067617
    21  H    0.067616
 Sum of ESP charges =   0.00000

 Summary of Natural Population Analysis:

                                       Natural Population
                Natural  -----------------------------------------------
    Atom  No    Charge         Core      Valence    Rydberg      Total
 -----------------------------------------------------------------------
      C    1   -0.17978      1.99905     4.16395    0.01678     6.17978
      C    2   -0.19967      1.99916     4.18264    0.01786     6.19967
      C    3   -0.17092      1.99909     4.15500    0.01683     6.17092
      C    4   -0.15219      1.99891     4.13432    0.01897     6.15219
      C    5   -0.15978      1.99899     4.14425    0.01655     6.15978
      C    6   -0.03440      1.99905     4.01980    0.01555     6.03440
      H    7    0.20420      0.00000     0.79427    0.00153     0.79580
      H    8    0.20797      0.00000     0.79046    0.00157     0.79203
      H    9    0.22510      0.00000     0.77334    0.00156     0.77490
      H   10    0.22768      0.00000     0.77045    0.00187     0.77232
      C   11    0.79809      1.99928     3.15542    0.04720     5.20191
      O   12   -0.60271      1.99975     6.59156    0.01140     8.60271
      O   13   -0.55488      1.99973     6.54069    0.01446     8.55488
      C   14   -0.59002      1.99931     4.58083    0.00988     6.59002
      H   15    0.20980      0.00000     0.78895    0.00125     0.79020
      H   16    0.21258      0.00000     0.78608    0.00134     0.78742
      H   17    0.21258      0.00000     0.78608    0.00134     0.78742
      C   18   -0.21306      1.99925     4.19782    0.01599     6.21306
      H   19    0.18559      0.00000     0.81326    0.00115     0.81441
      H   20    0.18691      0.00000     0.81125    0.00184     0.81309
      H   21    0.18691      0.00000     0.81125    0.00184     0.81309
 =======================================================================
   * Total *    0.00000     21.99156    57.79168    0.21676    80.00000

                      1                      2                      3
                      A                      A                      A
 Frequencies --     25.6700                47.9486               103.0568
 Red. masses --      1.0392                 4.4827                 2.1666
 Frc consts  --      0.0004                 0.0061                 0.0136
 IR Inten    --      0.2296                 2.1566                 1.9231

                      4                      5                      6
                      A                      A                      A
 Frequencies --    131.1393               145.8311               201.0965
 Red. masses --      1.3905                 3.7692                 3.9308
 Frc consts  --      0.0141                 0.0472                 0.0937
 IR Inten    --      0.0781                 1.9359                 0.7421

                      7                      8                      9
                      A                      A                      A
 Frequencies --    216.6732               281.4502               343.1117
 Red. masses --      3.1557                 3.8670                 4.0941
 Frc consts  --      0.0873                 0.1805                 0.2840
 IR Inten    --      3.0048                 7.5216                 9.3808

                     10                     11                     12
                      A                      A                      A
 Frequencies --    380.0734               435.5793               483.2608
 Red. masses --      4.3161                 3.0927                 5.2917
 Frc consts  --      0.3673                 0.3457                 0.7281
 IR Inten    --      1.4743                 0.7447                 2.9700

                     13                     14                     15
                      A                      A                      A
 Frequencies --    507.6128               544.1457               684.2683
 Red. masses --      3.7692                 5.3040                 6.6130
 Frc consts  --      0.5722                 0.9253                 1.8243
 IR Inten    --      5.5391                 2.9060                 1.9474

                     16                     17                     18
                      A                      A                      A
 Frequencies --    691.2610               761.7269               797.2774
 Red. masses --      2.8460                 2.0040                 5.5143
 Frc consts  --      0.8012                 0.6851                 2.0652
 IR Inten    --      6.0676                62.2144                 7.3598

                     19                     20                     21
                      A                      A                      A
 Frequencies --    829.2450               883.5312               923.5493
 Red. masses --      2.2071                 4.6042                 1.3075
 Frc consts  --      0.8942                 2.1176                 0.6571
 IR Inten    --      2.9036                13.7579                 1.4185

                     22                     23                     24
                      A                      A                      A
 Frequencies --    954.3225               994.7147              1002.3875
 Red. masses --      1.4470                 2.1688                 1.3281
 Frc consts  --      0.7764                 1.2643                 0.7862
 IR Inten    --      2.3008                 4.9941                 0.0059

                     25                     26                     27
                      A                      A                      A
 Frequencies --   1015.4984              1025.2516              1064.9002
 Red. masses --      5.4494                 2.5491                 1.5386
 Frc consts  --      3.3110                 1.5787                 1.0280
 IR Inten    --     13.1037                23.0762                 3.5314

                     28                     29                     30
                      A                      A                      A
 Frequencies --   1117.3089              1130.9971              1171.4903
 Red. masses --      1.6098                 2.1798                 1.2799
 Frc consts  --      1.1841                 1.6428                 1.0349
 IR Inten    --      8.5701                59.4353                 0.8063

                     31                     32                     33
                      A                      A                      A
 Frequencies --   1193.7666              1205.3347              1217.6632
 Red. masses --      1.1363                 1.6512                 2.7528
 Frc consts  --      0.9540                 1.4134                 2.4048
 IR Inten    --     14.6140                15.8651               227.3503

                     34                     35                     36
                      A                      A                      A
 Frequencies --   1294.9246              1319.2693              1347.4320
 Red. masses --      4.4320                 1.7133                 3.2156
 Frc consts  --      4.3786                 1.7569                 3.4397
 IR Inten    --    363.8900                 5.2939                 5.7444

                     37                     38                     39
                      A                      A                      A
 Frequencies --   1414.5759              1454.0631              1470.9663
 Red. masses --      1.2492                 2.1344                 1.2387
 Frc consts  --      1.4728                 2.6588                 1.5791
 IR Inten    --      2.5439                15.8059                34.4312

                     40                     41                     42
                      A                      A                      A
 Frequencies --   1482.5059              1488.0151              1498.1415
 Red. masses --      1.0446                 1.0433                 1.0537
 Frc consts  --      1.3527                 1.3610                 1.3934
 IR Inten    --      9.7585                 7.6294                14.0095

                     43                     44                     45
                      A                      A                      A
 Frequencies --   1499.4436              1518.0787              1623.0145
 Red. masses --      1.3610                 2.0317                 5.5016
 Frc consts  --      1.8029                 2.7587                 8.5385
 IR Inten    --     10.4031                 4.3737                 6.5524

                     46                     47                     48
                      A                      A                      A
 Frequencies --   1646.0217              1764.7912              3025.7033
 Red. masses --      5.8253                11.6609                 1.0373
 Frc consts  --      9.2991                21.3978                 5.5949
 IR Inten    --     15.3556               279.8149                28.7473

                     49                     50                     51
                      A                      A                      A
 Frequencies --   3049.5180              3074.5770              3107.3847
 Red. masses --      1.0295                 1.1004                 1.1003
 Frc consts  --      5.6405                 6.1289                 6.2594
 IR Inten    --     39.3389                15.5526                14.2258

                     52                     53                     54
                      A                      A                      A
 Frequencies --   3121.6793              3154.0578              3156.0840
 Red. masses --      1.1069                 1.1063                 1.0880
 Frc consts  --      6.3554                 6.4843                 6.3851
 IR Inten    --     19.2599                14.7071                 8.5647

                     55                     56                     57
                      A                      A                      A
 Frequencies --   3178.5193              3187.1221              3212.2222
 Red. masses --      1.0927                 1.0906                 1.0930
 Frc consts  --      6.5040                 6.5270                 6.6450
 IR Inten    --     16.6631                 2.2801                 2.6727

 - Thermochemistry -
 -------------------
 Temperature   298.150 Kelvin.  Pressure   1.00000 Atm.
 Atom     1 has atomic number  6 and mass  12.00000

 Molecular mass:   150.06808 amu.
 Principal axes and moments of inertia in atomic units:
                           1         2         3
     Eigenvalues --   699.209812771.886693448.54840
           X            0.99984   0.01784   0.00003
           Y           -0.01784   0.99984   0.00004
           Z           -0.00003  -0.00004   1.00000
 This molecule is an asymmetric top.
 Rotational symmetry number  1.
 Warning -- assumption of classical behavior for rotation
           may cause significant error
 Rotational temperatures (Kelvin)      0.12387     0.03125     0.02512
 Rotational constants (GHZ):           2.58112     0.65109     0.52333
 Zero-point vibrational energy     446202.6 (Joules/Mol)
                                  106.64499 (Kcal/Mol)
 Warning -- explicit consideration of  14 degrees of freedom as
           vibrations may cause significant error
 Vibrational temperatures:     36.93    68.99   148.28   188.68   209.82
          (Kelvin)            289.33   311.74   404.94   493.66   546.84
                              626.70   695.30   730.34   782.90   984.51
                              994.57  1095.95  1147.10  1193.10  1271.20
                             1328.78  1373.06  1431.17  1442.21  1461.07
                             1475.11  1532.15  1607.56  1627.25  1685.51
                             1717.56  1734.21  1751.94  1863.11  1898.13
                             1938.65  2035.26  2092.07  2116.39  2132.99
                             2140.92  2155.49  2157.36  2184.17  2335.15
                             2368.26  2539.14  4353.31  4387.57  4423.63
                             4470.83  4491.39  4537.98  4540.90  4573.17
                             4585.55  4621.67

 Zero-point correction=                           0.169950 (Hartree/Particle)
 Thermal correction to Energy=                    0.180717
 Thermal correction to Enthalpy=                  0.181661
 Thermal correction to Gibbs Free Energy=         0.132018
 Sum of electronic and zero-point Energies=           -499.415917
 Sum of electronic and thermal Energies=              -499.405149
 Sum of electronic and thermal Enthalpies=            -499.404205
 Sum of electronic and thermal Free Energies=         -499.453849

                     E (Thermal)             CV                S
                      KCal/Mol        Cal/Mol-Kelvin    Cal/Mol-Kelvin
 Total                  113.402             38.649            104.484
 Electronic               0.000              0.000              0.000
 Translational            0.889              2.981             40.928
 Rotational               0.889              2.981             30.281
 Vibrational            111.624             32.688             33.274
 Vibration     1          0.593              1.985              6.139
 Vibration     2          0.595              1.978              4.900
 Vibration     3          0.605              1.947              3.396
 Vibration     4          0.612              1.922              2.929
 Vibration     5          0.617              1.907              2.726
 Vibration     6          0.638              1.838              2.123
 Vibration     7          0.646              1.816              1.987
 Vibration     8          0.681              1.708              1.525
 Vibration     9          0.722              1.589              1.198
 Vibration    10          0.750              1.513              1.039
 Vibration    11          0.796              1.393              0.841
 Vibration    12          0.839              1.287              0.701
 Vibration    13          0.863              1.233              0.639
 Vibration    14          0.899              1.153              0.556

 Optimization completed.
    -- Stationary point found.
 Normal termination of Gaussian 09 at Tue Jan  3 11:29:15 2023.
