 Gaussian 09, Revision D.01,
 Gaussian 09:  ES64L-G09RevD.01 24-Apr-2013

 ---------------------------------------------------------------------
 # b3lyp/6-311+g(d,p) geom=connectivity pop=(hirshfeld,chelpg,mbs,npa)
 ---------------------------------------------------------------------

 --------
 Table1_1
 --------
 Symbolic Z-matrix:
 Charge =  0 Multiplicity = 1

                         Standard orientation:
 ---------------------------------------------------------------------
 Center     Atomic      Atomic             Coordinates (Angstroms)
 Number     Number       Type             X           Y           Z
 ---------------------------------------------------------------------
      1          6           0       -0.163336    4.503313    0.000000
      2          1           0       -0.902784    5.309466    0.000000
      3          1           0        0.470418    4.634454    0.883108
      4          1           0        0.470418    4.634454   -0.883108
      5          6           0       -0.834787    3.126800    0.000000
      6          1           0       -1.489196    3.040747   -0.876309
      7          1           0       -1.489196    3.040747    0.876309
      8          6           0        0.163336    1.963429    0.000000
      9          1           0        0.818531    2.050924    0.876884
     10          1           0        0.818531    2.050924   -0.876884
     11          6           0       -0.499547    0.581335    0.000000
     12          1           0       -1.154685    0.494994   -0.876870
     13          1           0       -1.154685    0.494994    0.876870
     14          6           0        0.499547   -0.581335    0.000000
     15          1           0        1.154685   -0.494994    0.876870
     16          1           0        1.154685   -0.494994   -0.876870
     17          6           0       -0.163336   -1.963429    0.000000
     18          1           0       -0.818531   -2.050924   -0.876884
     19          1           0       -0.818531   -2.050924    0.876884
     20          6           0        0.834787   -3.126800    0.000000
     21          6           0        0.163336   -4.503313    0.000000
     22          1           0        1.489196   -3.040747    0.876309
     23          1           0        1.489196   -3.040747   -0.876309
     24          1           0        0.902784   -5.309466    0.000000
     25          1           0       -0.470418   -4.634454    0.883108
     26          1           0       -0.470418   -4.634454   -0.883108
 ---------------------------------------------------------------------

 SCF Done:  E(RB3LYP) =  -315.802758060     A.U. after   11 cycles

 The electronic state is 1-AG.
 Alpha  occ. eigenvalues --  -10.16334 -10.16334 -10.16150 -10.16134 -10.16117
 Alpha  occ. eigenvalues --  -10.16112 -10.15659 -10.15659  -0.81126  -0.78787
 Alpha  occ. eigenvalues --   -0.75018  -0.70091  -0.64509  -0.59473  -0.57720
 Alpha  occ. eigenvalues --   -0.57335  -0.48462  -0.46364  -0.43843  -0.43185
 Alpha  occ. eigenvalues --   -0.41994  -0.41466  -0.39459  -0.38628  -0.35950
 Alpha  occ. eigenvalues --   -0.35752  -0.35408  -0.33453  -0.33307  -0.32508
 Alpha  occ. eigenvalues --   -0.32318  -0.32170  -0.30522
 Alpha virt. eigenvalues --    0.00819   0.01357   0.01886   0.02641   0.02643
 Alpha virt. eigenvalues --    0.03575   0.04388   0.04489   0.05775   0.06056
 Alpha virt. eigenvalues --    0.06661   0.06758   0.06891   0.07634   0.08374

 Mulliken charges:
               1
     1  C   -0.621212
     2  H    0.136714
     3  H    0.132089
     4  H    0.132089
     5  C   -0.224805
     6  H    0.134680
     7  H    0.134680
     8  C   -0.261495
     9  H    0.137137
    10  H    0.137137
    11  C   -0.115385
    12  H    0.139186
    13  H    0.139186
    14  C   -0.115385
    15  H    0.139186
    16  H    0.139186
    17  C   -0.261495
    18  H    0.137137
    19  H    0.137137
    20  C   -0.224805
    21  C   -0.621212
    22  H    0.134680
    23  H    0.134680
    24  H    0.136714
    25  H    0.132089
    26  H    0.132089
 Sum of Mulliken charges =   0.00000

 Dipole moment (field-independent basis, Debye):
    X=              0.0000    Y=              0.0000    Z=              0.0000  Tot=              0.0000
 Quadrupole moment (field-independent basis, Debye-Ang):
   XX=            -56.6311   YY=            -57.6898   ZZ=            -54.8339
   XY=             -0.5502   XZ=              0.0000   YZ=              0.0000

 ESP charges:
               1
     1  C   -0.182602
     2  H    0.039139
     3  H    0.032537
     4  H    0.032537
     5  C    0.182934
     6  H   -0.042344
     7  H   -0.042344
     8  C    0.012507
     9  H   -0.012016
    10  H   -0.012016
    11  C    0.037009
    12  H   -0.022670
    13  H   -0.022670
    14  C    0.037009
    15  H   -0.022670
    16  H   -0.022670
    17  C    0.012507
    18  H   -0.012016
    19  H   -0.012016
    20  C    0.182934
    21  C   -0.182602
    22  H   -0.042344
    23  H   -0.042344
    24  H    0.039139
    25  H    0.032537
    26  H    0.032537
 Sum of ESP charges =   0.00000

 Summary of Natural Population Analysis:

                                       Natural Population
                Natural  -----------------------------------------------
    Atom  No    Charge         Core      Valence    Rydberg      Total
 -----------------------------------------------------------------------
      C    1   -0.57256      1.99938     4.56404    0.00915     6.57256
      H    2    0.19910      0.00000     0.79968    0.00122     0.80090
      H    3    0.19272      0.00000     0.80556    0.00172     0.80728
      H    4    0.19272      0.00000     0.80556    0.00172     0.80728
      C    5   -0.38255      1.99932     4.37008    0.01315     6.38255
      H    6    0.18757      0.00000     0.81014    0.00229     0.81243
      H    7    0.18757      0.00000     0.81014    0.00229     0.81243
      C    8   -0.37899      1.99928     4.36514    0.01456     6.37899
      H    9    0.18768      0.00000     0.80997    0.00235     0.81232
      H   10    0.18768      0.00000     0.80997    0.00235     0.81232
      C   11   -0.37717      1.99928     4.36328    0.01462     6.37717
      H   12    0.18811      0.00000     0.80940    0.00248     0.81189
      H   13    0.18811      0.00000     0.80940    0.00248     0.81189
      C   14   -0.37717      1.99928     4.36328    0.01462     6.37717
      H   15    0.18811      0.00000     0.80940    0.00248     0.81189
      H   16    0.18811      0.00000     0.80940    0.00248     0.81189
      C   17   -0.37899      1.99928     4.36514    0.01456     6.37899
      H   18    0.18768      0.00000     0.80997    0.00235     0.81232
      H   19    0.18768      0.00000     0.80997    0.00235     0.81232
      C   20   -0.38255      1.99932     4.37008    0.01315     6.38255
      C   21   -0.57256      1.99938     4.56404    0.00915     6.57256
      H   22    0.18757      0.00000     0.81014    0.00229     0.81243
      H   23    0.18757      0.00000     0.81014    0.00229     0.81243
      H   24    0.19910      0.00000     0.79968    0.00122     0.80090
      H   25    0.19272      0.00000     0.80556    0.00172     0.80728
      H   26    0.19272      0.00000     0.80556    0.00172     0.80728
 =======================================================================
   * Total *    0.00000     15.99451    49.86470    0.14078    66.00000

 Normal termination of Gaussian 09 at Fri Jul 23 17:28:14 2021.
