 Gaussian 09, Revision D.01,
 Gaussian 09:  ES64L-G09RevD.01 24-Apr-2013

 ----------------------------------------------------------------------
 # opt freq b3lyp/6-311+g(d,p) geom=connectivity pop=(hirshfeld,chelpg,
 mbs,npa)
 ----------------------------------------------------------------------

 -------------------
 Title Card Required
 -------------------
 Symbolic Z-matrix:
 Charge =  0 Multiplicity = 1

 SCF Done:  E(RB3LYP) =  -615.914172201     A.U. after   12 cycles
 SCF Done:  E(RB3LYP) =  -615.915965608     A.U. after   11 cycles
 SCF Done:  E(RB3LYP) =  -615.915995737     A.U. after    9 cycles
 SCF Done:  E(RB3LYP) =  -615.916000866     A.U. after    9 cycles
 Optimization completed.
    -- Stationary point found.
 Normal termination of Gaussian 09 at Mon Jan  9 17:37:52 2023.

 ----------------------------------------------------------------------
 #N Geom=AllCheck Guess=TCheck SCRF=Check GenChk RB3LYP/6-311+G(d,p) Fr
 eq
 ----------------------------------------------------------------------

 Structure from the checkpoint file:  "pyrene1_Marder.chk"
 -------------------
 Title Card Required
 -------------------
 Charge =  0 Multiplicity = 1

                         Standard orientation:
 ---------------------------------------------------------------------
 Center     Atomic      Atomic             Coordinates (Angstroms)
 Number     Number       Type             X           Y           Z
 ---------------------------------------------------------------------
      1          6           0        3.519556    0.000000    0.000368
      2          6           0        2.829774   -1.209082    0.000306
      3          6           0        1.427408   -1.234471    0.000157
      4          6           0        0.712716    0.000000    0.000072
      5          6           0        1.427407    1.234472    0.000133
      6          6           0        2.829771    1.209084    0.000280
      7          6           0        0.679588   -2.461244    0.000092
      8          6           0       -0.712716    0.000000   -0.000074
      9          6           0       -1.427406   -1.234472   -0.000137
     10          6           0       -0.679585   -2.461244   -0.000050
     11          6           0       -2.829772   -1.209084   -0.000280
     12          1           0       -3.376090   -2.146406   -0.000327
     13          6           0       -3.519556   -0.000003   -0.000360
     14          6           0       -2.829773    1.209082   -0.000300
     15          6           0       -1.427409    1.234471   -0.000157
     16          6           0       -0.679588    2.461245   -0.000094
     17          6           0        0.679584    2.461245    0.000043
     18          1           0        1.227027    3.398098    0.000084
     19          1           0       -1.227032    3.398097   -0.000157
     20          1           0        1.227029   -3.398098    0.000155
     21          1           0        4.603817    0.000002    0.000483
     22          1           0        3.376093   -2.146403    0.000375
     23          1           0        3.376094    2.146403    0.000326
     24          1           0       -1.227028   -3.398097   -0.000101
     25          1           0       -4.603816   -0.000001   -0.000470
     26          1           0       -3.376095    2.146401   -0.000364
 ---------------------------------------------------------------------

 SCF Done:  E(RB3LYP) =  -615.916000866     A.U. after    1 cycles

 The electronic state is 1-A.
 Alpha  occ. eigenvalues --  -10.19120 -10.19118 -10.19110 -10.19110 -10.19028
 Alpha  occ. eigenvalues --  -10.18987 -10.18317 -10.18316 -10.18246 -10.18246
 Alpha  occ. eigenvalues --  -10.18179 -10.18179 -10.18121 -10.18121 -10.18094
 Alpha  occ. eigenvalues --  -10.18094  -0.90089  -0.85904  -0.83858  -0.80485
 Alpha  occ. eigenvalues --   -0.77410  -0.75578  -0.73798  -0.71775  -0.63599
 Alpha  occ. eigenvalues --   -0.63535  -0.63130  -0.61672  -0.55230  -0.53309
 Alpha  occ. eigenvalues --   -0.52449  -0.51187  -0.49915  -0.47853  -0.44857
 Alpha  occ. eigenvalues --   -0.44267  -0.44229  -0.42497  -0.41976  -0.40732
 Alpha  occ. eigenvalues --   -0.40595  -0.39825  -0.37494  -0.37338  -0.37106
 Alpha  occ. eigenvalues --   -0.35100  -0.33819  -0.32832  -0.30699  -0.28320
 Alpha  occ. eigenvalues --   -0.26519  -0.24047  -0.20843
 Alpha virt. eigenvalues --   -0.06834  -0.03874  -0.02140  -0.00270   0.00132
 Alpha virt. eigenvalues --    0.01003   0.01175   0.02424   0.02749   0.03997
 Alpha virt. eigenvalues --    0.04077   0.04533   0.04566   0.04603   0.05996

 Mulliken charges:
               1
     1  C   -0.487089
     2  C   -0.132867
     3  C    0.356665
     4  C   -0.125693
     5  C    0.356659
     6  C   -0.132862
     7  C   -0.213884
     8  C   -0.125693
     9  C    0.356664
    10  C   -0.213883
    11  C   -0.132865
    12  H    0.117736
    13  C   -0.487090
    14  C   -0.132860
    15  C    0.356659
    16  C   -0.213886
    17  C   -0.213887
    18  H    0.116000
    19  H    0.116000
    20  H    0.116000
    21  H    0.125486
    22  H    0.117736
    23  H    0.117736
    24  H    0.116000
    25  H    0.125486
    26  H    0.117736
 Sum of Mulliken charges =   0.00000

 Dipole moment (field-independent basis, Debye):
    X=              0.0000    Y=              0.0000    Z=              0.0000  Tot=              0.0000
 Quadrupole moment (field-independent basis, Debye-Ang):
   XX=            -81.0873   YY=            -81.0877   ZZ=            -99.9231
   XY=              0.0000   XZ=              0.0019   YZ=             -0.0002

  Exact polarizability: 291.440   0.000 208.020   0.021  -0.001  88.529
 Approx polarizability: 558.746   0.000 374.717   0.043  -0.002 144.571

 ESP charges:
               1
     1  C   -0.013051
     2  C   -0.255070
     3  C    0.204777
     4  C   -0.054168
     5  C    0.204777
     6  C   -0.255070
     7  C   -0.190225
     8  C   -0.054168
     9  C    0.204777
    10  C   -0.190224
    11  C   -0.255070
    12  H    0.119848
    13  C   -0.013051
    14  C   -0.255070
    15  C    0.204777
    16  C   -0.190224
    17  C   -0.190223
    18  H    0.112873
    19  H    0.112873
    20  H    0.112873
    21  H    0.082809
    22  H    0.119849
    23  H    0.119849
    24  H    0.112873
    25  H    0.082809
    26  H    0.119849
 Sum of ESP charges =   0.00000

 Summary of Natural Population Analysis:

                                       Natural Population
                Natural  -----------------------------------------------
    Atom  No    Charge         Core      Valence    Rydberg      Total
 -----------------------------------------------------------------------
      C    1   -0.20610      1.99920     4.18813    0.01877     6.20610
      C    2   -0.18036      1.99909     4.16459    0.01668     6.18036
      C    3   -0.06505      1.99902     4.04811    0.01791     6.06505
      C    4   -0.01180      1.99877     3.99271    0.02031     6.01180
      C    5   -0.06896      1.99905     4.05231    0.01760     6.06896
      C    6   -0.16668      1.99890     4.15053    0.01724     6.16668
      C    7   -0.16378      1.99891     4.14706    0.01782     6.16378
      C    8   -0.01562      1.99878     3.99837    0.01848     6.01562
      C    9   -0.05067      1.99877     4.03481    0.01708     6.05067
      C   10   -0.17105      1.99891     4.15364    0.01850     6.17105
      C   11   -0.16981      1.99891     4.15373    0.01717     6.16981
      H   12    0.20400      0.00000     0.79398    0.00202     0.79600
      C   13   -0.20628      1.99920     4.18814    0.01895     6.20628
      C   14   -0.17984      1.99909     4.16382    0.01693     6.17984
      C   15   -0.05956      1.99900     4.04311    0.01745     6.05956
      C   16   -0.18099      1.99912     4.16333    0.01854     6.18099
      C   17   -0.15965      1.99890     4.14353    0.01721     6.15965
      H   18    0.20526      0.00000     0.79289    0.00185     0.79474
      H   19    0.20617      0.00000     0.79202    0.00182     0.79383
      H   20    0.20482      0.00000     0.79293    0.00225     0.79518
      H   21    0.20760      0.00000     0.79083    0.00157     0.79240
      H   22    0.20530      0.00000     0.79301    0.00169     0.79470
      H   23    0.20415      0.00000     0.79397    0.00188     0.79585
      H   24    0.20887      0.00000     0.79005    0.00108     0.79113
      H   25    0.20759      0.00000     0.79086    0.00156     0.79241
      H   26    0.20520      0.00000     0.79311    0.00169     0.79480
 =======================================================================
   * Total *    0.00278     31.98361    73.70956    0.30405   105.99722

                      1                      2                      3
                      A                      A                      A
 Frequencies --     97.7898               151.1280               211.3406
 Red. masses --      4.6120                 4.2000                 3.8923
 Frc consts  --      0.0260                 0.0565                 0.1024
 IR Inten    --      0.6105                 0.0000                10.3700

                      4                      5                      6
                      A                      A                      A
 Frequencies --    246.8814               261.7232               358.9848
 Red. masses --      3.4782                 4.5737                 4.5463
 Frc consts  --      0.1249                 0.1846                 0.3452
 IR Inten    --      0.0000                 0.0000                 1.8646

                      7                      8                      9
                      A                      A                      A
 Frequencies --    402.6262               411.7071               462.1896
 Red. masses --      3.4967                 7.9934                 6.7914
 Frc consts  --      0.3340                 0.7983                 0.8548
 IR Inten    --      0.0000                 0.0000                 0.0000

                     10                     11                     12
                      A                      A                      A
 Frequencies --    498.8625               505.8915               506.7840
 Red. masses --      3.5992                 3.8509                 4.9216
 Frc consts  --      0.5277                 0.5807                 0.7447
 IR Inten    --      2.0695                 0.0000                 3.1646

                     13                     14                     15
                      A                      A                      A
 Frequencies --    508.1351               536.3281               553.7114
 Red. masses --      4.2872                 2.9715                 7.0581
 Frc consts  --      0.6522                 0.5036                 1.2750
 IR Inten    --      0.0000                 0.0000                 2.4783

                     16                     17                     18
                      A                      A                      A
 Frequencies --    581.5917               594.8373               687.5778
 Red. masses --      3.4038                 6.4099                 4.2563
 Frc consts  --      0.6783                 1.3363                 1.1856
 IR Inten    --      0.0000                 0.0000                 0.0000

                     19                     20                     21
                      A                      A                      A
 Frequencies --    703.4994               718.4990               748.8518
 Red. masses --      7.0687                 2.8891                 5.1950
 Frc consts  --      2.0612                 0.8787                 1.7164
 IR Inten    --      0.0127                41.4867                 0.0000

                     22                     23                     24
                      A                      A                      A
 Frequencies --    755.3685               763.1706               810.2514
 Red. masses --      1.1701                 2.1691                 2.1957
 Frc consts  --      0.3934                 0.7444                 0.8493
 IR Inten    --     16.1804                 0.0000                 0.0000

                     25                     26                     27
                      A                      A                      A
 Frequencies --    813.5769               814.2290               833.5710
 Red. masses --      1.3790                 5.7834                 4.5909
 Frc consts  --      0.5378                 2.2591                 1.8795
 IR Inten    --      0.0000                 0.0000                 4.2271

                     28                     29                     30
                      A                      A                      A
 Frequencies --    856.5172               906.1533               919.2769
 Red. masses --      1.8024                 1.3972                 1.4633
 Frc consts  --      0.7791                 0.6759                 0.7286
 IR Inten    --    118.0979                 0.0000                 0.0000

                     31                     32                     33
                      A                      A                      A
 Frequencies --    978.3894               979.6366               984.3449
 Red. masses --      1.2924                 4.4779                 1.3163
 Frc consts  --      0.7289                 2.5319                 0.7514
 IR Inten    --      0.0000                 0.0013                 0.0000

                     34                     35                     36
                      A                      A                      A
 Frequencies --    986.4072               993.6408              1014.1057
 Red. masses --      1.3200                 1.3281                 7.5279
 Frc consts  --      0.7567                 0.7726                 4.5613
 IR Inten    --      0.8892                 0.0000                 2.0649

                     37                     38                     39
                      A                      A                      A
 Frequencies --   1089.8946              1112.9347              1126.2253
 Red. masses --      2.1294                 1.6801                 2.2401
 Frc consts  --      1.4903                 1.2261                 1.6740
 IR Inten    --      0.0000                 8.3459                 0.0000

                     40                     41                     42
                      A                      A                      A
 Frequencies --   1165.2521              1167.5330              1197.8953
 Red. masses --      1.2776                 1.2847                 1.2843
 Frc consts  --      1.0221                 1.0318                 1.0858
 IR Inten    --      0.4334                 0.0000                 0.0000

                     43                     44                     45
                      A                      A                      A
 Frequencies --   1204.2972              1230.4010              1261.2104
 Red. masses --      1.2145                 2.4124                 3.0036
 Frc consts  --      1.0378                 2.1518                 2.8149
 IR Inten    --     14.3125                 0.0033                 0.0000

                     46                     47                     48
                      A                      A                      A
 Frequencies --   1263.4584              1267.5009              1342.6209
 Red. masses --      1.6410                 1.7046                 3.8968
 Frc consts  --      1.5434                 1.6135                 4.1387
 IR Inten    --      0.0000                 2.2447                 5.2909

                     49                     50                     51
                      A                      A                      A
 Frequencies --   1350.5437              1399.1734              1425.5069
 Red. masses --      3.2106                 7.7781                 6.2510
 Frc consts  --      3.4503                 8.9716                 7.4841
 IR Inten    --      0.0000                 0.0000                 0.0000

                     52                     53                     54
                      A                      A                      A
 Frequencies --   1433.3517              1456.6029              1458.2813
 Red. masses --      1.6213                 2.4571                 2.3573
 Frc consts  --      1.9625                 3.0716                 2.9536
 IR Inten    --      0.0000                 3.3431                 7.1698

                     55                     56                     57
                      A                      A                      A
 Frequencies --   1481.7313              1512.8337              1532.9950
 Red. masses --      3.7591                 4.2589                 3.1102
 Frc consts  --      4.8627                 5.7429                 4.3065
 IR Inten    --      1.3095                 3.0798                 0.0000

                     58                     59                     60
                      A                      A                      A
 Frequencies --   1592.8886              1623.9677              1632.8247
 Red. masses --      4.2639                 7.7418                 5.6176
 Frc consts  --      6.3743                12.0295                 8.8243
 IR Inten    --      0.0000                 0.0000                11.8036

                     61                     62                     63
                      A                      A                      A
 Frequencies --   1642.1646              1667.6854              3156.4336
 Red. masses --      6.0320                 7.0743                 1.0860
 Frc consts  --      9.5839                11.5921                 6.3750
 IR Inten    --      1.5261                 0.0000                 2.5381

                     64                     65                     66
                      A                      A                      A
 Frequencies --   3156.7052              3159.9194              3160.5381
 Red. masses --      1.0862                 1.0861                 1.0860
 Frc consts  --      6.3773                 6.3898                 6.3913
 IR Inten    --      0.0000                 0.0000                 0.0239

                     67                     68                     69
                      A                      A                      A
 Frequencies --   3167.5278              3168.4170              3175.6133
 Red. masses --      1.0909                 1.0903                 1.0958
 Frc consts  --      6.4489                 6.4489                 6.5111
 IR Inten    --     14.5998                 0.0000                 0.0018

                     70                     71                     72
                      A                      A                      A
 Frequencies --   3175.6987              3184.6390              3185.0111
 Red. masses --      1.0956                 1.0963                 1.0961
 Frc consts  --      6.5098                 6.5510                 6.5511
 IR Inten    --     66.0725                56.2532                 0.0001

 - Thermochemistry -
 -------------------
 Temperature   298.150 Kelvin.  Pressure   1.00000 Atm.
 Atom     1 has atomic number  6 and mass  12.00000

 Molecular mass:   202.07825 amu.
 Principal axes and moments of inertia in atomic units:
                           1         2         3
     Eigenvalues --  1782.716183244.523965027.24014
           X            1.00000   0.00000  -0.00010
           Y            0.00000   1.00000   0.00001
           Z            0.00010  -0.00001   1.00000
 This molecule is an asymmetric top.
 Rotational symmetry number  1.
 Warning -- assumption of classical behavior for rotation
           may cause significant error
 Rotational temperatures (Kelvin)      0.04859     0.02670     0.01723
 Rotational constants (GHZ):           1.01235     0.55624     0.35899
 Zero-point vibrational energy     541237.6 (Joules/Mol)
                                  129.35889 (Kcal/Mol)
 Warning -- explicit consideration of  17 degrees of freedom as
           vibrations may cause significant error
 Vibrational temperatures:    140.70   217.44   304.07   355.21   376.56
          (Kelvin)            516.50   579.29   592.35   664.99   717.75
                              727.86   729.15   731.09   771.66   796.67
                              836.78   855.84   989.27  1012.18  1033.76
                             1077.43  1086.81  1098.03  1165.77  1170.55
                             1171.49  1199.32  1232.34  1303.75  1322.63
                             1407.68  1409.48  1416.25  1419.22  1429.63
                             1459.07  1568.11  1601.26  1620.38  1676.54
                             1679.82  1723.50  1732.71  1770.27  1814.60
                             1817.83  1823.65  1931.73  1943.13  2013.10
                             2050.98  2062.27  2095.72  2098.14  2131.88
                             2176.63  2205.64  2291.81  2336.52  2349.27
                             2362.71  2399.42  4541.40  4541.79  4546.41
                             4547.30  4557.36  4558.64  4568.99  4569.12
                             4581.98  4582.51

 Zero-point correction=                           0.206147 (Hartree/Particle)
 Thermal correction to Energy=                    0.216253
 Thermal correction to Enthalpy=                  0.217197
 Thermal correction to Gibbs Free Energy=         0.170795
 Sum of electronic and zero-point Energies=           -615.709854
 Sum of electronic and thermal Energies=              -615.699748
 Sum of electronic and thermal Enthalpies=            -615.698803
 Sum of electronic and thermal Free Energies=         -615.745205

                     E (Thermal)             CV                S
                      KCal/Mol        Cal/Mol-Kelvin    Cal/Mol-Kelvin
 Total                  135.701             44.864             97.661
 Electronic               0.000              0.000              0.000
 Translational            0.889              2.981             41.815
 Rotational               0.889              2.981             31.742
 Vibrational            133.924             38.902             24.104
 Vibration     1          0.603              1.951              3.498
 Vibration     2          0.619              1.901              2.658
 Vibration     3          0.643              1.824              2.032
 Vibration     4          0.661              1.768              1.753
 Vibration     5          0.669              1.743              1.650
 Vibration     6          0.734              1.557              1.126
 Vibration     7          0.768              1.464              0.953
 Vibration     8          0.776              1.445              0.921
 Vibration     9          0.820              1.334              0.760
 Vibration    10          0.854              1.253              0.661
 Vibration    11          0.861              1.237              0.644
 Vibration    12          0.862              1.235              0.641
 Vibration    13          0.863              1.232              0.638
 Vibration    14          0.891              1.170              0.573
 Vibration    15          0.909              1.132              0.537
 Vibration    16          0.938              1.071              0.482
 Vibration    17          0.953              1.043              0.459

 Optimization completed.
    -- Stationary point found.
 Normal termination of Gaussian 09 at Mon Jan  9 17:48:23 2023.
