 Gaussian 09, Revision D.01,
 Gaussian 09:  ES64L-G09RevD.01 24-Apr-2013

 ----------------------------------------------------------------------
 # opt freq b3lyp/6-311+g(d,p) geom=connectivity pop=(hirshfeld,chelpg,
 mbs,npa)
 ----------------------------------------------------------------------

 -------------------
 Title Card Required
 -------------------
 Symbolic Z-matrix:
 Charge =  0 Multiplicity = 1

 SCF Done:  E(RB3LYP) =  -1263.13845518     A.U. after   18 cycles
 SCF Done:  E(RB3LYP) =  -1263.15416520     A.U. after   14 cycles
 SCF Done:  E(RB3LYP) =  -1263.15842095     A.U. after   13 cycles
 SCF Done:  E(RB3LYP) =  -1263.15913595     A.U. after   12 cycles
 SCF Done:  E(RB3LYP) =  -1263.15922301     A.U. after   12 cycles
 SCF Done:  E(RB3LYP) =  -1263.15923345     A.U. after   10 cycles
 SCF Done:  E(RB3LYP) =  -1263.15924051     A.U. after   11 cycles
 SCF Done:  E(RB3LYP) =  -1263.15924336     A.U. after   12 cycles
 SCF Done:  E(RB3LYP) =  -1263.15933305     A.U. after   12 cycles
 SCF Done:  E(RB3LYP) =  -1263.13250365     A.U. after   14 cycles
 SCF Done:  E(RB3LYP) =  -1263.16747178     A.U. after   11 cycles
 SCF Done:  E(RB3LYP) =  -1263.16750147     A.U. after   10 cycles
 SCF Done:  E(RB3LYP) =  -1263.16751364     A.U. after   10 cycles
 SCF Done:  E(RB3LYP) =  -1263.16751915     A.U. after   10 cycles
 SCF Done:  E(RB3LYP) =  -1263.16752124     A.U. after   10 cycles
 SCF Done:  E(RB3LYP) =  -1263.16752218     A.U. after    9 cycles
 SCF Done:  E(RB3LYP) =  -1263.16752272     A.U. after    9 cycles
 SCF Done:  E(RB3LYP) =  -1263.16752296     A.U. after    9 cycles
 SCF Done:  E(RB3LYP) =  -1263.16752301     A.U. after    8 cycles
 Optimization completed.
    -- Stationary point found.
 Normal termination of Gaussian 09 at Mon Jan  9 17:35:00 2023.

 ----------------------------------------------------------------------
 #N Geom=AllCheck Guess=TCheck SCRF=Check GenChk RB3LYP/6-311+G(d,p) Fr
 eq
 ----------------------------------------------------------------------

 Structure from the checkpoint file:  "aryltrifluorborates4_Carreira.chk"
 -------------------
 Title Card Required
 -------------------
 Charge =  0 Multiplicity = 1

                         Standard orientation:
 ---------------------------------------------------------------------
 Center     Atomic      Atomic             Coordinates (Angstroms)
 Number     Number       Type             X           Y           Z
 ---------------------------------------------------------------------
      1          6           0       -0.843136   -0.336817   -0.037926
      2          6           0        0.238253    0.527898   -0.011263
      3          6           0        0.119983    1.910212    0.010859
      4          6           0       -1.175665    2.423695    0.010036
      5          6           0       -2.289984    1.596924   -0.017192
      6          6           0       -2.153867    0.190596   -0.053419
      7          1           0       -0.677288   -1.401084   -0.047011
      8          1           0        0.981747    2.559323    0.033507
      9          1           0       -1.315842    3.498243    0.034468
     10          1           0       -3.271388    2.049095   -0.010029
     11         16           0        1.924736   -0.207162    0.002965
     12          9           0        1.557860   -1.281555   -1.192458
     13          9           0        1.515593   -1.335585    1.133075
     14          9           0        3.427532   -0.860449    0.015541
     15          9           0        2.438601    0.798899    1.199216
     16          9           0        2.481324    0.852676   -1.125166
     17          7           0       -3.251801   -0.645315   -0.108858
     18          6           0       -4.586604   -0.091141    0.058626
     19          1           0       -5.317775   -0.890424   -0.050062
     20          1           0       -4.729258    0.373922    1.044144
     21          1           0       -4.802123    0.657959   -0.709114
     22          6           0       -3.072555   -2.083122    0.033203
     23          1           0       -2.642712   -2.358895    1.005936
     24          1           0       -4.040580   -2.571853   -0.062598
     25          1           0       -2.424712   -2.479835   -0.754078
 ---------------------------------------------------------------------

 SCF Done:  E(RB3LYP) =  -1263.16752301     A.U. after    1 cycles

 The electronic state is 1-A.
 Alpha  occ. eigenvalues --  -89.21308 -24.71089 -24.71081 -24.71063 -24.71046
 Alpha  occ. eigenvalues --  -24.71032 -14.35732 -10.24423 -10.24158 -10.22258
 Alpha  occ. eigenvalues --  -10.22099 -10.20270 -10.20044 -10.19725 -10.19512
 Alpha  occ. eigenvalues --   -8.25864  -6.22375  -6.22362  -6.21806  -1.33232
 Alpha  occ. eigenvalues --   -1.24035  -1.23967  -1.21458  -1.20148  -0.97644
 Alpha  occ. eigenvalues --   -0.89064  -0.83365  -0.78093  -0.77183  -0.74576
 Alpha  occ. eigenvalues --   -0.69310  -0.65471  -0.63173  -0.62692  -0.61647
 Alpha  occ. eigenvalues --   -0.58504  -0.54547  -0.52117  -0.51910  -0.50569
 Alpha  occ. eigenvalues --   -0.50448  -0.49418  -0.49347  -0.48908  -0.46955
 Alpha  occ. eigenvalues --   -0.46205  -0.45181  -0.44493  -0.44454  -0.44441
 Alpha  occ. eigenvalues --   -0.43106  -0.42802  -0.42152  -0.41951  -0.41236
 Alpha  occ. eigenvalues --   -0.41025  -0.40192  -0.39646  -0.39306  -0.36918
 Alpha  occ. eigenvalues --   -0.31894  -0.28607  -0.22295
 Alpha virt. eigenvalues --   -0.09149  -0.04929  -0.02297  -0.01340   0.00498
 Alpha virt. eigenvalues --    0.01390   0.02315   0.02713   0.02784   0.03735
 Alpha virt. eigenvalues --    0.04216   0.04362   0.05583   0.05670   0.06407

 Mulliken charges:
               1
     1  C   -0.048948
     2  C   -0.670719
     3  C    0.547226
     4  C   -0.749219
     5  C    0.343267
     6  C   -0.892304
     7  H    0.149086
     8  H    0.154686
     9  H    0.135031
    10  H    0.122594
    11  S    0.692148
    12  F   -0.004024
    13  F   -0.005293
    14  F   -0.021372
    15  F   -0.011119
    16  F   -0.012219
    17  N   -0.022552
    18  C   -0.289806
    19  H    0.142832
    20  H    0.155079
    21  H    0.143729
    22  C   -0.312430
    23  H    0.158982
    24  H    0.145471
    25  H    0.149877
 Sum of Mulliken charges =   0.00000

 Dipole moment (field-independent basis, Debye):
    X=             -6.7260    Y=              0.4762    Z=              0.1498  Tot=              6.7445
 Quadrupole moment (field-independent basis, Debye-Ang):
   XX=            -86.1101   YY=            -86.9814   ZZ=            -99.9789
   XY=              4.3852   XZ=             -0.5300   YZ=              0.0428

  Exact polarizability: 169.879   8.296 140.121  -0.651   0.023  86.337
 Approx polarizability: 234.290  15.483 225.521   0.676   1.413 134.983

 ESP charges:
               1
     1  C   -0.294985
     2  C    0.093463
     3  C   -0.181621
     4  C   -0.038800
     5  C   -0.252956
     6  C    0.353394
     7  H    0.187424
     8  H    0.150616
     9  H    0.098051
    10  H    0.136543
    11  S    0.827561
    12  F   -0.228207
    13  F   -0.233855
    14  F   -0.154053
    15  F   -0.225249
    16  F   -0.226177
    17  N   -0.315655
    18  C    0.054932
    19  H    0.060160
    20  H    0.017726
    21  H    0.016228
    22  C    0.051820
    23  H    0.023930
    24  H    0.059627
    25  H    0.020082
 Sum of ESP charges =   0.00000

 Summary of Natural Population Analysis:

                                       Natural Population
                Natural  -----------------------------------------------
    Atom  No    Charge         Core      Valence    Rydberg      Total
 -----------------------------------------------------------------------
      C    1   -0.26049      1.99892     4.24387    0.01770     6.26049
      C    2   -0.15397      1.99870     4.12772    0.02755     6.15397
      C    3   -0.24796      1.99897     4.22866    0.02033     6.24796
      C    4   -0.16943      1.99917     4.15254    0.01772     6.16943
      C    5   -0.24349      1.99910     4.22867    0.01572     6.24349
      C    6    0.20534      1.99902     3.77674    0.01890     5.79466
      H    7    0.24250      0.00000     0.75554    0.00196     0.75750
      H    8    0.23995      0.00000     0.75837    0.00168     0.76005
      H    9    0.21449      0.00000     0.78413    0.00138     0.78551
      H   10    0.21440      0.00000     0.78406    0.00154     0.78560
      S   11    2.27965      9.99841     3.55152    0.17042    13.72035
      F   12   -0.46805      1.99996     7.46223    0.00586     9.46805
      F   13   -0.46839      1.99996     7.46253    0.00590     9.46839
      F   14   -0.43439      1.99996     7.42754    0.00689     9.43439
      F   15   -0.46490      1.99996     7.45899    0.00595     9.46490
      F   16   -0.46474      1.99996     7.45884    0.00594     9.46474
      N   17   -0.48309      1.99929     5.47011    0.01368     7.48309
      C   18   -0.35293      1.99935     4.34075    0.01283     6.35293
      H   19    0.20223      0.00000     0.79659    0.00118     0.79777
      H   20    0.18570      0.00000     0.81159    0.00271     0.81430
      H   21    0.19507      0.00000     0.80321    0.00173     0.80493
      C   22   -0.35582      1.99934     4.34366    0.01281     6.35582
      H   23    0.18826      0.00000     0.80910    0.00265     0.81174
      H   24    0.20231      0.00000     0.79651    0.00118     0.79769
      H   25    0.19775      0.00000     0.80059    0.00165     0.80225
 =======================================================================
   * Total *    0.00000     37.99008    87.63407    0.37585   126.00000

                      1                      2                      3
                      A                      A                      A
 Frequencies --     29.2068                56.7879                80.3132
 Red. masses --      7.3752                 2.9468                 2.2623
 Frc consts  --      0.0037                 0.0056                 0.0086
 IR Inten    --      0.0970                 0.2150                 6.3888

                      4                      5                      6
                      A                      A                      A
 Frequencies --    111.2474               114.3765               148.3309
 Red. masses --      4.3357                 6.3523                 1.6016
 Frc consts  --      0.0316                 0.0490                 0.0208
 IR Inten    --      0.3687                 0.7984                 0.6979

                      7                      8                      9
                      A                      A                      A
 Frequencies --    185.1156               210.6630               252.8648
 Red. masses --      1.7079                 2.7624                 5.3040
 Frc consts  --      0.0345                 0.0722                 0.1998
 IR Inten    --      0.0129                 1.9127                 3.5837

                     10                     11                     12
                      A                      A                      A
 Frequencies --    262.2765               277.7499               313.8137
 Red. masses --      4.6706                 2.7480                18.6648
 Frc consts  --      0.1893                 0.1249                 1.0830
 IR Inten    --      1.5502                 2.2107                 0.0057

                     13                     14                     15
                      A                      A                      A
 Frequencies --    318.8597               366.6466               377.5811
 Red. masses --      4.7115                 8.8999                 5.4290
 Frc consts  --      0.2822                 0.7049                 0.4560
 IR Inten    --      1.2701                 0.3535                 1.3794

                     16                     17                     18
                      A                      A                      A
 Frequencies --    419.0076               420.5007               464.2043
 Red. masses --      4.3793                15.4627                 3.4488
 Frc consts  --      0.4530                 1.6109                 0.4379
 IR Inten    --      0.3035                 0.0098                 2.2934

                     19                     20                     21
                      A                      A                      A
 Frequencies --    494.9914               506.1451               521.8130
 Red. masses --      7.1821                14.6289                 5.9488
 Frc consts  --      1.0368                 2.2081                 0.9544
 IR Inten    --      7.4488                 8.4491                 2.5256

                     22                     23                     24
                      A                      A                      A
 Frequencies --    533.2187               536.8999               554.3436
 Red. masses --     18.6973                14.5637                 3.7177
 Frc consts  --      3.1321                 2.4735                 0.6731
 IR Inten    --      0.1343                34.9518                 0.2018

                     25                     26                     27
                      A                      A                      A
 Frequencies --    586.9988               604.7089               659.0324
 Red. masses --     19.3197                 5.5439                 7.8394
 Frc consts  --      3.9222                 1.1944                 2.0061
 IR Inten    --     22.9888                 0.6162                62.4773

                     28                     29                     30
                      A                      A                      A
 Frequencies --    684.0155               741.9139               768.6315
 Red. masses --      2.1498                 9.1630                 1.3957
 Frc consts  --      0.5926                 2.9716                 0.4858
 IR Inten    --      6.4011               302.6665                32.0144

                     31                     32                     33
                      A                      A                      A
 Frequencies --    779.5058               784.1925               820.7753
 Red. masses --     23.0882                22.7989                 8.1012
 Frc consts  --      8.2657                 8.2606                 3.2155
 IR Inten    --    379.0096               299.9157               164.1881

                     34                     35                     36
                      A                      A                      A
 Frequencies --    850.8354               880.0495               975.0136
 Red. masses --      1.6437                 1.3819                 3.1012
 Frc consts  --      0.7011                 0.6306                 1.7370
 IR Inten    --     30.8533                 0.1001                 8.4178

                     37                     38                     39
                      A                      A                      A
 Frequencies --    980.7173               996.1552              1078.6820
 Red. masses --      1.3123                 5.8294                 1.5301
 Frc consts  --      0.7436                 3.4082                 1.0490
 IR Inten    --      0.2404                18.3395                24.1135

                     40                     41                     42
                      A                      A                      A
 Frequencies --   1104.1059              1124.0372              1135.0552
 Red. masses --      2.3624                 1.6736                 1.2372
 Frc consts  --      1.6968                 1.2458                 0.9391
 IR Inten    --      5.9542                 1.7397                 0.1768

                     43                     44                     45
                      A                      A                      A
 Frequencies --   1141.0236              1195.9173              1210.0284
 Red. masses --      1.3392                 1.5457                 1.1756
 Frc consts  --      1.0273                 1.3025                 1.0142
 IR Inten    --     17.0273                 7.6761                10.8681

                     46                     47                     48
                      A                      A                      A
 Frequencies --   1267.3454              1344.4258              1353.7158
 Red. masses --      2.9524                 1.6286                 4.4867
 Frc consts  --      2.7940                 1.7343                 4.8443
 IR Inten    --     55.2324                17.7756                 6.7760

                     49                     50                     51
                      A                      A                      A
 Frequencies --   1379.5594              1450.0293              1472.3935
 Red. masses --      2.6439                 1.1825                 2.1045
 Frc consts  --      2.9647                 1.4649                 2.6881
 IR Inten    --    117.6480                 1.1746                27.7900

                     52                     53                     54
                      A                      A                      A
 Frequencies --   1487.1428              1487.8971              1496.2618
 Red. masses --      1.1868                 1.1367                 1.0632
 Frc consts  --      1.5464                 1.4827                 1.4024
 IR Inten    --     18.4170                 7.4791                17.9618

                     55                     56                     57
                      A                      A                      A
 Frequencies --   1515.6884              1525.1747              1540.3269
 Red. masses --      1.1317                 1.3589                 1.5930
 Frc consts  --      1.5318                 1.8624                 2.2269
 IR Inten    --      2.7189                 3.4995               198.5431

                     58                     59                     60
                      A                      A                      A
 Frequencies --   1590.6827              1647.0296              2980.0250
 Red. masses --      5.5669                 5.8279                 1.0500
 Frc consts  --      8.2991                 9.3146                 5.4939
 IR Inten    --     27.9983               198.0009                78.1825

                     61                     62                     63
                      A                      A                      A
 Frequencies --   2988.2439              3049.6107              3052.7247
 Red. masses --      1.0526                 1.0896                 1.0915
 Frc consts  --      5.5376                 5.9706                 5.9933
 IR Inten    --     63.9032                27.0292                34.1520

                     64                     65                     66
                      A                      A                      A
 Frequencies --   3123.0015              3135.2314              3179.7254
 Red. masses --      1.0970                 1.0944                 1.0892
 Frc consts  --      6.3038                 6.3382                 6.4884
 IR Inten    --      2.0529                32.4734                 8.0502

                     67                     68                     69
                      A                      A                      A
 Frequencies --   3217.5847              3236.6920              3257.2026
 Red. masses --      1.0910                 1.0935                 1.0898
 Frc consts  --      6.6546                 6.7497                 6.8121
 IR Inten    --      5.8565                 2.9909                 2.6906

 - Thermochemistry -
 -------------------
 Temperature   298.150 Kelvin.  Pressure   1.00000 Atm.
 Atom     1 has atomic number  6 and mass  12.00000

 Molecular mass:   247.04541 amu.
 Principal axes and moments of inertia in atomic units:
                           1         2         3
     Eigenvalues --  1662.245205491.043436394.29059
           X            0.99987   0.01601  -0.00144
           Y           -0.01602   0.99987  -0.00057
           Z            0.00143   0.00059   1.00000
 This molecule is an asymmetric top.
 Rotational symmetry number  1.
 Warning -- assumption of classical behavior for rotation
           may cause significant error
 Rotational temperatures (Kelvin)      0.05211     0.01577     0.01355
 Rotational constants (GHZ):           1.08573     0.32867     0.28224
 Zero-point vibrational energy     469151.9 (Joules/Mol)
                                  112.12999 (Kcal/Mol)
 Warning -- explicit consideration of  26 degrees of freedom as
           vibrations may cause significant error
 Vibrational temperatures:     42.02    81.71   115.55   160.06   164.56
          (Kelvin)            213.41   266.34   303.10   363.82   377.36
                              399.62   451.51   458.77   527.52   543.25
                              602.86   605.01   667.89   712.18   728.23
                              750.77   767.18   772.48   797.58   844.56
                              870.04   948.20   984.14  1067.45  1105.89
                             1121.53  1128.28  1180.91  1224.16  1266.19
                             1402.83  1411.03  1433.24  1551.98  1588.56
                             1617.24  1633.09  1641.68  1720.66  1740.96
                             1823.43  1934.33  1947.69  1984.88  2086.27
                             2118.44  2139.66  2140.75  2152.78  2180.73
                             2194.38  2216.18  2288.63  2369.71  4287.59
                             4299.41  4387.70  4392.18  4493.30  4510.89
                             4574.91  4629.38  4656.87  4686.38

 Zero-point correction=                           0.178691 (Hartree/Particle)
 Thermal correction to Energy=                    0.193618
 Thermal correction to Enthalpy=                  0.194562
 Thermal correction to Gibbs Free Energy=         0.136402
 Sum of electronic and zero-point Energies=          -1262.988833
 Sum of electronic and thermal Energies=             -1262.973905
 Sum of electronic and thermal Enthalpies=           -1262.972961
 Sum of electronic and thermal Free Energies=        -1263.031121

                     E (Thermal)             CV                S
                      KCal/Mol        Cal/Mol-Kelvin    Cal/Mol-Kelvin
 Total                  121.497             56.813            122.409
 Electronic               0.000              0.000              0.000
 Translational            0.889              2.981             42.414
 Rotational               0.889              2.981             32.434
 Vibrational            119.720             50.852             47.561
 Vibration     1          0.593              1.984              5.883
 Vibration     2          0.596              1.975              4.566
 Vibration     3          0.600              1.963              3.883
 Vibration     4          0.607              1.940              3.247
 Vibration     5          0.607              1.938              3.193
 Vibration     6          0.618              1.904              2.694
 Vibration     7          0.631              1.860              2.276
 Vibration     8          0.643              1.825              2.038
 Vibration     9          0.664              1.758              1.711
 Vibration    10          0.670              1.742              1.647
 Vibration    11          0.679              1.715              1.547
 Vibration    12          0.702              1.647              1.342
 Vibration    13          0.705              1.638              1.316
 Vibration    14          0.740              1.541              1.094
 Vibration    15          0.748              1.518              1.049
 Vibration    16          0.782              1.429              0.895
 Vibration    17          0.783              1.426              0.890
 Vibration    18          0.822              1.329              0.754
 Vibration    19          0.851              1.261              0.671
 Vibration    20          0.861              1.236              0.643
 Vibration    21          0.877              1.202              0.606
 Vibration    22          0.888              1.177              0.580
 Vibration    23          0.892              1.168              0.572
 Vibration    24          0.910              1.130              0.535
 Vibration    25          0.944              1.060              0.473
 Vibration    26          0.963              1.022              0.442

 Optimization completed.
    -- Stationary point found.
 Normal termination of Gaussian 09 at Mon Jan  9 17:41:57 2023.
