 Gaussian 09, Revision D.01,
 Gaussian 09:  ES64L-G09RevD.01 24-Apr-2013

 ----------------------------------------------------------------------
 # opt freq=noraman b3lyp/6-311+g(d,p) pop=(npa,hirshfeld,chelpg,mbs) g
 eom=connectivity
 ----------------------------------------------------------------------

 -------------------
 Title Card Required
 -------------------
 Symbolic Z-matrix:
 Charge =  0 Multiplicity = 1

 SCF Done:  E(RB3LYP) =  -424.311088770     A.U. after   15 cycles
 SCF Done:  E(RB3LYP) =  -424.321023881     A.U. after   12 cycles
 SCF Done:  E(RB3LYP) =  -424.321305059     A.U. after   12 cycles
 SCF Done:  E(RB3LYP) =  -424.301926895     A.U. after   14 cycles
 SCF Done:  E(RB3LYP) =  -424.321544862     A.U. after   11 cycles
 SCF Done:  E(RB3LYP) =  -424.321659407     A.U. after   11 cycles
 SCF Done:  E(RB3LYP) =  -424.321673737     A.U. after   11 cycles
 SCF Done:  E(RB3LYP) =  -424.321674798     A.U. after   10 cycles
 SCF Done:  E(RB3LYP) =  -424.321675593     A.U. after   10 cycles
 SCF Done:  E(RB3LYP) =  -424.321676851     A.U. after   10 cycles
 SCF Done:  E(RB3LYP) =  -424.321678467     A.U. after   10 cycles
 SCF Done:  E(RB3LYP) =  -424.321678195     A.U. after    8 cycles
 Optimization completed.
    -- Stationary point found.
 Normal termination of Gaussian 09 at Tue Apr 23 15:03:37 2024.

 ----------------------------------------------------------------------
 #N Geom=AllCheck Guess=TCheck SCRF=Check GenChk RB3LYP/6-311+G(d,p) Fr
 eq
 ----------------------------------------------------------------------

 Structure from the checkpoint file:  "9.chk"
 -------------------
 Title Card Required
 -------------------
 Charge =  0 Multiplicity = 1

                         Standard orientation:
 ---------------------------------------------------------------------
 Center     Atomic      Atomic             Coordinates (Angstroms)
 Number     Number       Type             X           Y           Z
 ---------------------------------------------------------------------
      1          6           0       -0.715708    1.360683   -0.020212
      2          6           0       -1.495449    0.200117    0.006623
      3          6           0       -0.874278   -1.046980   -0.147135
      4          6           0        0.499340   -1.121153   -0.321273
      5          6           0        1.291564    0.038342   -0.346400
      6          6           0        0.661998    1.279078   -0.195370
      7          1           0       -1.487225   -1.940706   -0.130933
      8          1           0        0.972762   -2.089996   -0.445841
      9          6           0       -2.957801    0.304191    0.191908
     10          8           0       -3.724407   -0.633645    0.230326
     11          1           0       -3.335237    1.343617    0.300456
     12          1           0       -1.193407    2.329328    0.093108
     13          1           0        1.256522    2.186606   -0.219822
     14          6           0        2.792301   -0.057220   -0.496408
     15          1           0        3.168061    0.851405   -0.976544
     16          1           0        3.037352   -0.889573   -1.163659
     17          6           0        3.512911   -0.256907    0.849573
     18          1           0        4.594317   -0.323455    0.702843
     19          1           0        3.312671    0.575858    1.528872
     20          1           0        3.180166   -1.174823    1.341078
 ---------------------------------------------------------------------

 SCF Done:  E(RB3LYP) =  -424.321678195     A.U. after    1 cycles

 The electronic state is 1-A.
 Alpha  occ. eigenvalues --  -19.12189 -10.26246 -10.20467 -10.19867 -10.19390
 Alpha  occ. eigenvalues --  -10.19293 -10.19137 -10.19032 -10.18881 -10.17500
 Alpha  occ. eigenvalues --   -1.05150  -0.88214  -0.81130  -0.76794  -0.75153
 Alpha  occ. eigenvalues --   -0.67020  -0.63268  -0.61471  -0.58092  -0.52205
 Alpha  occ. eigenvalues --   -0.49439  -0.47746  -0.45431  -0.44846  -0.44102
 Alpha  occ. eigenvalues --   -0.42927  -0.42342  -0.41198  -0.39416  -0.36973
 Alpha  occ. eigenvalues --   -0.36302  -0.35618  -0.35259  -0.27567  -0.26609
 Alpha  occ. eigenvalues --   -0.26533
 Alpha virt. eigenvalues --   -0.07478  -0.03146  -0.00623   0.00767   0.01315
 Alpha virt. eigenvalues --    0.01835   0.02458   0.03186   0.03893   0.04770
 Alpha virt. eigenvalues --    0.05709   0.05794   0.06549   0.06680   0.07181

 Mulliken charges:
               1
     1  C   -0.915720
     2  C    0.755854
     3  C   -0.038398
     4  C   -0.307377
     5  C    0.520465
     6  C   -0.319418
     7  H    0.153447
     8  H    0.121415
     9  C   -0.116540
    10  O   -0.267674
    11  H    0.097031
    12  H    0.129891
    13  H    0.118596
    14  C   -0.084902
    15  H    0.131964
    16  H    0.138669
    17  C   -0.537237
    18  H    0.141846
    19  H    0.138928
    20  H    0.139161
 Sum of Mulliken charges =   0.00000

 Dipole moment (field-independent basis, Debye):
    X=              3.8890    Y=              1.5513    Z=             -0.2678  Tot=              4.1955
 Quadrupole moment (field-independent basis, Debye-Ang):
   XX=            -69.7221   YY=            -55.4461   ZZ=            -62.6795
   XY=             -6.4040   XZ=              0.0206   YZ=              0.9516

  Exact polarizability: 158.515   1.262 107.535  -4.873   1.721  68.230
 Approx polarizability: 226.210  10.371 183.599 -12.738   3.634 101.732

 ESP charges:
               1
     1  C   -0.168923
     2  C   -0.001862
     3  C   -0.020864
     4  C   -0.189762
     5  C    0.096562
     6  C   -0.110592
     7  H    0.087062
     8  H    0.121332
     9  C    0.428299
    10  O   -0.479861
    11  H   -0.010410
    12  H    0.101632
    13  H    0.108197
    14  C    0.025889
    15  H   -0.009042
    16  H   -0.004427
    17  C    0.122026
    18  H   -0.017126
    19  H   -0.042430
    20  H   -0.035700
 Sum of ESP charges =   0.00000

 Summary of Natural Population Analysis:

                                       Natural Population
                Natural  -----------------------------------------------
    Atom  No    Charge         Core      Valence    Rydberg      Total
 -----------------------------------------------------------------------
      C    1   -0.15466      1.99909     4.13843    0.01714     6.15466
      C    2   -0.17672      1.99897     4.16095    0.01681     6.17672
      C    3   -0.14256      1.99907     4.12531    0.01818     6.14256
      C    4   -0.20517      1.99905     4.18909    0.01703     6.20517
      C    5    0.00893      1.99903     3.97340    0.01865     5.99107
      C    6   -0.21145      1.99904     4.19485    0.01755     6.21145
      H    7    0.22767      0.00000     0.77021    0.00212     0.77233
      H    8    0.20767      0.00000     0.79057    0.00176     0.79233
      C    9    0.41788      1.99937     3.54319    0.03956     5.58212
      O   10   -0.53535      1.99977     6.52141    0.01418     8.53535
      H   11    0.10579      0.00000     0.89071    0.00350     0.89421
      H   12    0.20843      0.00000     0.78957    0.00200     0.79157
      H   13    0.20747      0.00000     0.79070    0.00183     0.79253
      C   14   -0.40379      1.99924     4.38917    0.01538     6.40379
      H   15    0.20395      0.00000     0.79415    0.00190     0.79605
      H   16    0.20557      0.00000     0.79250    0.00193     0.79443
      C   17   -0.56407      1.99936     4.55627    0.00845     6.56407
      H   18    0.20200      0.00000     0.79671    0.00130     0.79800
      H   19    0.19908      0.00000     0.79939    0.00153     0.80092
      H   20    0.19933      0.00000     0.79915    0.00152     0.80067
 =======================================================================
   * Total *    0.00000     19.99198    51.80572    0.20230    72.00000

                      1                      2                      3
                      A                      A                      A
 Frequencies --     32.7828                75.9426               146.9579
 Red. masses --      2.5405                 5.1792                 3.5373
 Frc consts  --      0.0016                 0.0176                 0.0450
 IR Inten    --      0.3788                 0.8185                 7.6007

                      4                      5                      6
                      A                      A                      A
 Frequencies --    184.9336               228.7825               235.2160
 Red. masses --      2.6728                 1.5411                 2.2317
 Frc consts  --      0.0539                 0.0475                 0.0727
 IR Inten    --      4.9900                 2.2417                 3.5762

                      7                      8                      9
                      A                      A                      A
 Frequencies --    346.9814               361.8226               417.2521
 Red. masses --      3.4227                 2.4583                 3.2692
 Frc consts  --      0.2428                 0.1896                 0.3353
 IR Inten    --      0.5371                 2.4508                 0.1712

                     10                     11                     12
                      A                      A                      A
 Frequencies --    426.1079               538.0677               611.9077
 Red. masses --      3.5388                 2.8503                 4.5766
 Frc consts  --      0.3786                 0.4862                 1.0096
 IR Inten    --      2.3541                17.8472                10.6809

                     13                     14                     15
                      A                      A                      A
 Frequencies --    651.3297               735.2075               757.6593
 Red. masses --      6.7027                 3.6708                 3.3510
 Frc consts  --      1.6753                 1.1691                 1.1334
 IR Inten    --      0.2619                 6.2771                19.8891

                     16                     17                     18
                      A                      A                      A
 Frequencies --    793.2830               842.2030               852.3515
 Red. masses --      1.1722                 1.5050                 4.1692
 Frc consts  --      0.4346                 0.6289                 1.7846
 IR Inten    --      0.7632                37.9980                32.2716

                     19                     20                     21
                      A                      A                      A
 Frequencies --    859.5126               968.7287               972.1685
 Red. masses --      1.2890                 2.3853                 1.3470
 Frc consts  --      0.5610                 1.3189                 0.7501
 IR Inten    --      5.3978                 1.4249                 0.4567

                     22                     23                     24
                      A                      A                      A
 Frequencies --    998.5627              1027.8295              1033.1951
 Red. masses --      1.3722                 1.7762                 2.6939
 Frc consts  --      0.8062                 1.1056                 1.6943
 IR Inten    --      0.0180                 1.2108                 2.4515

                     25                     26                     27
                      A                      A                      A
 Frequencies --   1068.6577              1078.0065              1137.5480
 Red. masses --      1.4743                 1.8939                 1.3102
 Frc consts  --      0.9920                 1.2967                 0.9989
 IR Inten    --      4.1600                17.0387                 4.5906

                     28                     29                     30
                      A                      A                      A
 Frequencies --   1188.8346              1222.0757              1231.5462
 Red. masses --      1.2710                 3.3056                 2.1071
 Frc consts  --      1.0584                 2.9087                 1.8829
 IR Inten    --     51.2652                11.6297                43.4828

                     31                     32                     33
                      A                      A                      A
 Frequencies --   1269.0587              1331.7065              1348.3289
 Red. masses --      1.3741                 1.6340                 1.5665
 Frc consts  --      1.3039                 1.7074                 1.6779
 IR Inten    --      0.5778                19.0979                 0.2716

                     34                     35                     36
                      A                      A                      A
 Frequencies --   1355.4653              1408.7042              1413.5205
 Red. masses --      2.4568                 1.2096                 1.4038
 Frc consts  --      2.6595                 1.4143                 1.6526
 IR Inten    --      2.5886                 3.5870                10.1088

                     37                     38                     39
                      A                      A                      A
 Frequencies --   1450.9662              1490.8886              1496.5956
 Red. masses --      2.2273                 1.0593                 1.0395
 Frc consts  --      2.7627                 1.3873                 1.3717
 IR Inten    --      8.9120                 3.2885                10.5756

                     40                     41                     42
                      A                      A                      A
 Frequencies --   1509.5498              1536.9987              1606.9207
 Red. masses --      1.0904                 2.4649                 6.1838
 Frc consts  --      1.4640                 3.4308                 9.4079
 IR Inten    --      4.1884                 0.5097                16.3851

                     43                     44                     45
                      A                      A                      A
 Frequencies --   1644.5215              1763.5080              2883.0867
 Red. masses --      5.6906                10.1979                 1.0828
 Frc consts  --      9.0675                18.6860                 5.3027
 IR Inten    --    106.9929               340.1012               126.4557

                     46                     47                     48
                      A                      A                      A
 Frequencies --   3026.6818              3030.4493              3062.3905
 Red. masses --      1.0349                 1.0589                 1.1033
 Frc consts  --      5.5857                 5.7293                 6.0965
 IR Inten    --     31.1106                27.4348                 5.5551

                     49                     50                     51
                      A                      A                      A
 Frequencies --   3093.7514              3098.4406              3153.0996
 Red. masses --      1.1020                 1.1034                 1.0870
 Frc consts  --      6.2144                 6.2411                 6.3675
 IR Inten    --     41.7380                32.4057                 7.7022

                     52                     53                     54
                      A                      A                      A
 Frequencies --   3159.6734              3170.1052              3190.7680
 Red. masses --      1.0890                 1.0943                 1.0931
 Frc consts  --      6.4054                 6.4792                 6.5566
 IR Inten    --     10.9371                14.1542                 2.8616

 - Thermochemistry -
 -------------------
 Temperature   298.150 Kelvin.  Pressure   1.00000 Atm.
 Atom     1 has atomic number  6 and mass  12.00000

 Molecular mass:   134.07317 amu.
 Principal axes and moments of inertia in atomic units:
                           1         2         3
     Eigenvalues --   450.542332645.021042926.80055
           X            0.99992  -0.01116   0.00623
           Y            0.01112   0.99991   0.00716
           Z           -0.00631  -0.00709   0.99995
 This molecule is an asymmetric top.
 Rotational symmetry number  1.
 Warning -- assumption of classical behavior for rotation
           may cause significant error
 Rotational temperatures (Kelvin)      0.19224     0.03275     0.02959
 Rotational constants (GHZ):           4.00571     0.68232     0.61663
 Zero-point vibrational energy     433769.7 (Joules/Mol)
                                  103.67345 (Kcal/Mol)
 Warning -- explicit consideration of  12 degrees of freedom as
           vibrations may cause significant error
 Vibrational temperatures:     47.17   109.26   211.44   266.08   329.17
          (Kelvin)            338.42   499.23   520.58   600.33   613.07
                              774.16   880.40   937.12  1057.80  1090.10
                             1141.36  1211.74  1226.34  1236.65  1393.78
                             1398.73  1436.71  1478.82  1486.54  1537.56
                             1551.01  1636.68  1710.47  1758.29  1771.92
                             1825.89  1916.03  1939.94  1950.21  2026.81
                             2033.74  2087.61  2145.05  2153.26  2171.90
                             2211.40  2312.00  2366.10  2537.29  4148.11
                             4354.71  4360.14  4406.09  4451.21  4457.96
                             4536.60  4546.06  4561.07  4590.80

 Zero-point correction=                           0.165214 (Hartree/Particle)
 Thermal correction to Energy=                    0.174596
 Thermal correction to Enthalpy=                  0.175540
 Thermal correction to Gibbs Free Energy=         0.129809
 Sum of electronic and zero-point Energies=           -424.156464
 Sum of electronic and thermal Energies=              -424.147082
 Sum of electronic and thermal Enthalpies=            -424.146138
 Sum of electronic and thermal Free Energies=         -424.191869

                     E (Thermal)             CV                S
                      KCal/Mol        Cal/Mol-Kelvin    Cal/Mol-Kelvin
 Total                  109.561             34.786             96.249
 Electronic               0.000              0.000              0.000
 Translational            0.889              2.981             40.592
 Rotational               0.889              2.981             29.635
 Vibrational            107.783             28.825             26.022
 Vibration     1          0.594              1.983              5.653
 Vibration     2          0.599              1.965              3.993
 Vibration     3          0.617              1.906              2.711
 Vibration     4          0.631              1.860              2.278
 Vibration     5          0.651              1.797              1.888
 Vibration     6          0.655              1.787              1.839
 Vibration     7          0.725              1.581              1.180
 Vibration     8          0.736              1.551              1.114
 Vibration     9          0.780              1.433              0.901
 Vibration    10          0.788              1.413              0.871
 Vibration    11          0.893              1.166              0.569
 Vibration    12          0.971              1.007              0.430

 Optimization completed.
    -- Stationary point found.
 Normal termination of Gaussian 09 at Tue Apr 23 15:06:00 2024.
