 Gaussian 09, Revision D.01,
 Gaussian 09:  ES64L-G09RevD.01 24-Apr-2013

 ----------------------------------------------------------------------
 # opt freq b3lyp/6-311+g(d,p) geom=connectivity pop=(hirshfeld,chelpg,
 mbs,npa)
 ----------------------------------------------------------------------

 -------------------
 Title Card Required
 -------------------
 Symbolic Z-matrix:
 Charge =  0 Multiplicity = 1

 SCF Done:  E(RB3LYP) =  -1357.08533650     A.U. after   17 cycles
 SCF Done:  E(RB3LYP) =  -1357.10321421     A.U. after   13 cycles
 SCF Done:  E(RB3LYP) =  -1357.10679078     A.U. after   13 cycles
 SCF Done:  E(RB3LYP) =  -1357.10723664     A.U. after   12 cycles
 SCF Done:  E(RB3LYP) =  -1357.10728425     A.U. after   11 cycles
 SCF Done:  E(RB3LYP) =  -1357.10728900     A.U. after   10 cycles
 SCF Done:  E(RB3LYP) =  -1357.10728353     A.U. after   10 cycles
 SCF Done:  E(RB3LYP) =  -1357.10728946     A.U. after   11 cycles
 Optimization completed.
    -- Stationary point found.
 Normal termination of Gaussian 09 at Mon Jan  9 17:17:16 2023.

 ----------------------------------------------------------------------
 #N Geom=AllCheck Guess=TCheck SCRF=Check GenChk RB3LYP/6-311+G(d,p) Fr
 eq
 ----------------------------------------------------------------------

 Structure from the checkpoint file:  "aryltrifluorborates3_Carreira.chk"
 -------------------
 Title Card Required
 -------------------
 Charge =  0 Multiplicity = 1

                         Standard orientation:
 ---------------------------------------------------------------------
 Center     Atomic      Atomic             Coordinates (Angstroms)
 Number     Number       Type             X           Y           Z
 ---------------------------------------------------------------------
      1          6           0       -0.666327   -0.071300    0.000002
      2          6           0        0.542986    0.607208   -0.000001
      3          6           0        0.622100    1.995115   -0.000002
      4          6           0       -0.564524    2.725693   -0.000001
      5          6           0       -1.792071    2.073484    0.000001
      6          6           0       -1.846857    0.677236    0.000002
      7          1           0       -0.710275   -1.149547    0.000003
      8          1           0        1.578347    2.498256   -0.000003
      9          1           0       -0.521617    3.808021   -0.000002
     10          1           0       -2.721154    2.629574    0.000000
     11         16           0        2.097656   -0.368167    0.000000
     12          9           0        1.541650   -1.390346   -1.161361
     13          9           0        1.541635   -1.390371    1.161331
     14          9           0        3.481967   -1.234755    0.000000
     15          9           0        2.775786    0.579288    1.161269
     16          9           0        2.775803    0.579312   -1.161240
     17          6           0       -3.191870    0.023092    0.000005
     18          8           0       -4.236809    0.630159   -0.000001
     19          8           0       -3.106480   -1.319086    0.000003
     20          6           0       -4.358562   -2.033835   -0.000004
     21          1           0       -4.088800   -3.087092   -0.000013
     22          1           0       -4.936750   -1.782727    0.889750
     23          1           0       -4.936749   -1.782712   -0.889753
 ---------------------------------------------------------------------

 SCF Done:  E(RB3LYP) =  -1357.10728946     A.U. after    1 cycles

 The electronic state is 1-A.
 Alpha  occ. eigenvalues --  -89.22765 -24.72444 -24.72393 -24.72393 -24.72387
 Alpha  occ. eigenvalues --  -24.72387 -19.19312 -19.13447 -10.32832 -10.25931
 Alpha  occ. eigenvalues --  -10.24352 -10.23075 -10.23019 -10.22965 -10.22024
 Alpha  occ. eigenvalues --  -10.21938  -8.27303  -6.23815  -6.23802  -6.23260
 Alpha  occ. eigenvalues --   -1.34708  -1.25430  -1.25358  -1.22906  -1.21501
 Alpha  occ. eigenvalues --   -1.13452  -1.04670  -0.91964  -0.85415  -0.81404
 Alpha  occ. eigenvalues --   -0.78741  -0.75323  -0.67654  -0.67302  -0.64054
 Alpha  occ. eigenvalues --   -0.63970  -0.62615  -0.58454  -0.55959  -0.53899
 Alpha  occ. eigenvalues --   -0.52949  -0.51951  -0.51911  -0.50888  -0.50735
 Alpha  occ. eigenvalues --   -0.50566  -0.48464  -0.48114  -0.47731  -0.45942
 Alpha  occ. eigenvalues --   -0.45787  -0.45741  -0.44844  -0.44067  -0.43134
 Alpha  occ. eigenvalues --   -0.43042  -0.42702  -0.42309  -0.40750  -0.40332
 Alpha  occ. eigenvalues --   -0.39435  -0.38275  -0.33397  -0.30888  -0.30589
 Alpha  occ. eigenvalues --   -0.30242
 Alpha virt. eigenvalues --   -0.10292  -0.08703  -0.06473  -0.00602   0.00185
 Alpha virt. eigenvalues --    0.00761   0.01712   0.02218   0.02716   0.02962
 Alpha virt. eigenvalues --    0.03598   0.04176   0.04532   0.04930   0.05526

 Mulliken charges:
               1
     1  C   -0.093797
     2  C   -1.282304
     3  C    0.466161
     4  C   -0.501167
     5  C   -0.391035
     6  C    0.203298
     7  H    0.182087
     8  H    0.168898
     9  H    0.146831
    10  H    0.163094
    11  S    0.707333
    12  F    0.014546
    13  F    0.014545
    14  F   -0.008724
    15  F   -0.005896
    16  F   -0.005899
    17  C    0.308416
    18  O   -0.274033
    19  O   -0.148320
    20  C   -0.152424
    21  H    0.159780
    22  H    0.164305
    23  H    0.164305
 Sum of Mulliken charges =   0.00000

 Dipole moment (field-independent basis, Debye):
    X=             -2.8363    Y=              1.0691    Z=              0.0000  Tot=              3.0311
 Quadrupole moment (field-independent basis, Debye-Ang):
   XX=           -106.0873   YY=            -86.3573   ZZ=           -100.8274
   XY=             12.3910   XZ=              0.0000   YZ=              0.0000

  Exact polarizability: 162.634   4.327 136.252   0.000   0.001  78.943
 Approx polarizability: 230.008  -0.364 214.404   0.000   0.000 122.067

 ESP charges:
               1
     1  C   -0.095773
     2  C    0.098099
     3  C   -0.127133
     4  C   -0.077657
     5  C   -0.031550
     6  C   -0.081438
     7  H    0.108564
     8  H    0.159211
     9  H    0.109120
    10  H    0.098145
    11  S    0.759413
    12  F   -0.205468
    13  F   -0.205466
    14  F   -0.137228
    15  F   -0.217127
    16  F   -0.217128
    17  C    0.672728
    18  O   -0.519550
    19  O   -0.316946
    20  C   -0.021417
    21  H    0.087060
    22  H    0.080770
    23  H    0.080770
 Sum of ESP charges =   0.00000

 Summary of Natural Population Analysis:

                                       Natural Population
                Natural  -----------------------------------------------
    Atom  No    Charge         Core      Valence    Rydberg      Total
 -----------------------------------------------------------------------
      C    1   -0.15948      1.99892     4.14133    0.01923     6.15948
      C    2   -0.18357      1.99869     4.15764    0.02724     6.18357
      C    3   -0.17311      1.99899     4.15482    0.01930     6.17311
      C    4   -0.19144      1.99916     4.17516    0.01713     6.19144
      C    5   -0.13432      1.99909     4.11811    0.01713     6.13432
      C    6   -0.14095      1.99890     4.12311    0.01894     6.14095
      H    7    0.26039      0.00000     0.73758    0.00203     0.73961
      H    8    0.24284      0.00000     0.75553    0.00163     0.75716
      H    9    0.22163      0.00000     0.77702    0.00135     0.77837
      H   10    0.23914      0.00000     0.75926    0.00160     0.76086
      S   11    2.28548      9.99842     3.54369    0.17242    13.71452
      F   12   -0.46298      1.99996     7.45718    0.00584     9.46298
      F   13   -0.46298      1.99996     7.45718    0.00584     9.46298
      F   14   -0.42963      1.99996     7.42270    0.00697     9.42963
      F   15   -0.46425      1.99996     7.45843    0.00586     9.46425
      F   16   -0.46425      1.99996     7.45843    0.00586     9.46425
      C   17    0.79775      1.99929     3.15573    0.04723     5.20225
      O   18   -0.58931      1.99975     6.57831    0.01126     8.58931
      O   19   -0.54886      1.99972     6.53519    0.01394     8.54886
      C   20   -0.21291      1.99925     4.19808    0.01558     6.21291
      H   21    0.19101      0.00000     0.80789    0.00110     0.80899
      H   22    0.18990      0.00000     0.80836    0.00174     0.81010
      H   23    0.18990      0.00000     0.80836    0.00174     0.81010
 =======================================================================
   * Total *    0.00000     39.98997    91.58907    0.42096   132.00000

                      1                      2                      3
                      A                      A                      A
 Frequencies --     24.2570                46.1253                87.9358
 Red. masses --      9.5328                 6.2450                 6.5131
 Frc consts  --      0.0033                 0.0078                 0.0297
 IR Inten    --      0.0547                 3.3529                 1.5531

                      4                      5                      6
                      A                      A                      A
 Frequencies --     97.4409               113.9956               132.7952
 Red. masses --      3.8113                 1.6739                 2.1904
 Frc consts  --      0.0213                 0.0128                 0.0228
 IR Inten    --      0.9586                 0.7434                 0.2180

                      7                      8                      9
                      A                      A                      A
 Frequencies --    168.7018               210.1684               240.0460
 Red. masses --      8.5555                 4.4060                 8.1168
 Frc consts  --      0.1435                 0.1147                 0.2756
 IR Inten    --      1.0599                 3.2372                 1.8555

                     10                     11                     12
                      A                      A                      A
 Frequencies --    260.2199               288.2016               313.9509
 Red. masses --      6.9889                 6.9284                18.8472
 Frc consts  --      0.2788                 0.3391                 1.0945
 IR Inten    --      0.0853                12.1741                 0.0001

                     13                     14                     15
                      A                      A                      A
 Frequencies --    332.7367               354.9028               363.6241
 Red. masses --      5.7437                 6.8458                 8.9975
 Frc consts  --      0.3747                 0.5080                 0.7009
 IR Inten    --      8.2184                 0.7188                 0.1607

                     16                     17                     18
                      A                      A                      A
 Frequencies --    405.9703               422.2350               436.3514
 Red. masses --      9.6724                18.9603                 3.3827
 Frc consts  --      0.9392                 1.9916                 0.3795
 IR Inten    --      2.3661                 0.0674                 0.1479

                     19                     20                     21
                      A                      A                      A
 Frequencies --    494.5031               500.3666               518.1618
 Red. masses --      9.6469                15.2246                 9.1198
 Frc consts  --      1.3899                 2.2458                 1.4427
 IR Inten    --     10.5128                 3.1938                 1.7951

                     22                     23                     24
                      A                      A                      A
 Frequencies --    537.3162               542.9188               552.0539
 Red. masses --     18.8746                18.8111                 6.8846
 Frc consts  --      3.2106                 3.2669                 1.2362
 IR Inten    --      0.0030                43.9924                 8.3520

                     25                     26                     27
                      A                      A                      A
 Frequencies --    590.5334               656.4198               681.0476
 Red. masses --     19.3287                 7.4956                 2.8675
 Frc consts  --      3.9714                 1.9029                 0.7836
 IR Inten    --     18.7691                32.1247                 3.0207

                     28                     29                     30
                      A                      A                      A
 Frequencies --    703.3999               766.7666               785.6862
 Red. masses --      8.8990                 2.5282                24.1320
 Frc consts  --      2.5941                 0.8758                 8.7769
 IR Inten    --    176.1763                60.3599               381.9096

                     31                     32                     33
                      A                      A                      A
 Frequencies --    789.3652               791.4679               824.0144
 Red. masses --     22.6926                10.8590                 1.8804
 Frc consts  --      8.3309                 4.0078                 0.7523
 IR Inten    --    302.3908               229.4665                 2.3118

                     34                     35                     36
                      A                      A                      A
 Frequencies --    862.8324               929.9052               958.5767
 Red. masses --      6.2914                 1.4305                 1.4119
 Frc consts  --      2.7596                 0.7288                 0.7644
 IR Inten    --     80.8493                 4.7762                 0.5411

                     37                     38                     39
                      A                      A                      A
 Frequencies --    983.0297              1014.5511              1015.9800
 Red. masses --      7.3565                 6.1234                 1.3415
 Frc consts  --      4.1884                 3.7135                 0.8158
 IR Inten    --      9.9873                 2.3232                 0.0832

                     40                     41                     42
                      A                      A                      A
 Frequencies --   1095.0984              1111.9639              1144.9100
 Red. masses --      2.2743                 1.9198                 2.4266
 Frc consts  --      1.6069                 1.3986                 1.8741
 IR Inten    --     16.3261                66.9192                59.8755

                     43                     44                     45
                      A                      A                      A
 Frequencies --   1172.2053              1197.4930              1213.4684
 Red. masses --      1.2776                 1.1384                 1.6028
 Frc consts  --      1.0343                 0.9618                 1.3905
 IR Inten    --      0.8284                14.0818                34.6753

                     46                     47                     48
                      A                      A                      A
 Frequencies --   1282.4636              1322.8845              1346.7300
 Red. masses --      3.5178                 1.6709                 4.4664
 Frc consts  --      3.4089                 1.7228                 4.7727
 IR Inten    --    426.3988                72.5512                 8.9490

                     49                     50                     51
                      A                      A                      A
 Frequencies --   1455.9778              1472.1053              1483.7334
 Red. masses --      2.8802                 1.1934                 1.0442
 Frc consts  --      3.5974                 1.5238                 1.3543
 IR Inten    --     16.7315                21.8656                10.7549

                     52                     53                     54
                      A                      A                      A
 Frequencies --   1496.5833              1508.1999              1609.1556
 Red. masses --      1.0512                 2.3276                 6.0039
 Frc consts  --      1.3872                 3.1194                 9.1596
 IR Inten    --     10.9849                 3.5817                 9.4417

                     55                     56                     57
                      A                      A                      A
 Frequencies --   1640.3650              1775.7818              3054.9361
 Red. masses --      6.1855                11.6800                 1.0295
 Frc consts  --      9.8062                21.7006                 5.6608
 IR Inten    --      9.5305               288.7667                31.0748

                     58                     59                     60
                      A                      A                      A
 Frequencies --   3130.0538              3163.6022              3188.9287
 Red. masses --      1.1074                 1.1067                 1.0889
 Frc consts  --      6.3923                 6.5257                 6.5245
 IR Inten    --     15.2614                10.1629                 2.9460

                     61                     62                     63
                      A                      A                      A
 Frequencies --   3207.4276              3227.4436              3246.0023
 Red. masses --      1.0938                 1.0938                 1.0917
 Frc consts  --      6.6296                 6.7127                 6.7774
 IR Inten    --      2.2671                 1.5284                 6.7993

 - Thermochemistry -
 -------------------
 Temperature   298.150 Kelvin.  Pressure   1.00000 Atm.
 Atom     1 has atomic number  6 and mass  12.00000

 Molecular mass:   262.00869 amu.
 Principal axes and moments of inertia in atomic units:
                           1         2         3
     Eigenvalues --  1965.267646503.203217725.10352
           X            0.99971   0.02406   0.00000
           Y           -0.02406   0.99971   0.00000
           Z            0.00000   0.00000   1.00000
 This molecule is an asymmetric top.
 Rotational symmetry number  1.
 Warning -- assumption of classical behavior for rotation
           may cause significant error
 Rotational temperatures (Kelvin)      0.04407     0.01332     0.01121
 Rotational constants (GHZ):           0.91832     0.27752     0.23362
 Zero-point vibrational energy     390856.3 (Joules/Mol)
                                   93.41689 (Kcal/Mol)
 Warning -- explicit consideration of  25 degrees of freedom as
           vibrations may cause significant error
 Vibrational temperatures:     34.90    66.36   126.52   140.20   164.01
          (Kelvin)            191.06   242.72   302.39   345.37   374.40
                              414.66   451.70   478.73   510.63   523.17
                              584.10   607.50   627.81   711.48   719.92
                              745.52   773.08   781.14   794.28   849.64
                              944.44   979.87  1012.03  1103.20  1130.43
                             1135.72  1138.74  1185.57  1241.42  1337.92
                             1379.18  1414.36  1459.71  1461.77  1575.60
                             1599.87  1647.27  1686.54  1722.92  1745.91
                             1845.18  1903.33  1937.64  2094.82  2118.03
                             2134.76  2153.25  2169.96  2315.21  2360.12
                             2554.95  4395.37  4503.44  4551.71  4588.15
                             4614.77  4643.57  4670.27

 Zero-point correction=                           0.148869 (Hartree/Particle)
 Thermal correction to Energy=                    0.163859
 Thermal correction to Enthalpy=                  0.164803
 Thermal correction to Gibbs Free Energy=         0.105739
 Sum of electronic and zero-point Energies=          -1356.958420
 Sum of electronic and thermal Energies=             -1356.943430
 Sum of electronic and thermal Enthalpies=           -1356.942486
 Sum of electronic and thermal Free Energies=        -1357.001550

                     E (Thermal)             CV                S
                      KCal/Mol        Cal/Mol-Kelvin    Cal/Mol-Kelvin
 Total                  102.823             56.344            124.311
 Electronic               0.000              0.000              0.000
 Translational            0.889              2.981             42.589
 Rotational               0.889              2.981             32.957
 Vibrational            101.046             50.382             48.765
 Vibration     1          0.593              1.985              6.251
 Vibration     2          0.595              1.979              4.977
 Vibration     3          0.601              1.958              3.705
 Vibration     4          0.603              1.951              3.505
 Vibration     5          0.607              1.938              3.200
 Vibration     6          0.613              1.921              2.905
 Vibration     7          0.625              1.881              2.450
 Vibration     8          0.642              1.825              2.042
 Vibration     9          0.657              1.779              1.803
 Vibration    10          0.668              1.745              1.660
 Vibration    11          0.685              1.696              1.485
 Vibration    12          0.702              1.647              1.341
 Vibration    13          0.715              1.610              1.247
 Vibration    14          0.731              1.565              1.144
 Vibration    15          0.737              1.547              1.107
 Vibration    16          0.771              1.457              0.941
 Vibration    17          0.785              1.422              0.884
 Vibration    18          0.797              1.391              0.838
 Vibration    19          0.850              1.262              0.672
 Vibration    20          0.856              1.249              0.657
 Vibration    21          0.873              1.210              0.614
 Vibration    22          0.892              1.168              0.571
 Vibration    23          0.898              1.155              0.559
 Vibration    24          0.907              1.135              0.540
 Vibration    25          0.948              1.052              0.466

 Optimization completed.
    -- Stationary point found.
 Normal termination of Gaussian 09 at Mon Jan  9 17:23:36 2023.
