 Gaussian 09, Revision D.01,
 Gaussian 09:  ES64L-G09RevD.01 24-Apr-2013

 ---------------------------------------------------------------------
 # b3lyp/6-311+g(d,p) geom=connectivity pop=(hirshfeld,chelpg,mbs,npa)
 ---------------------------------------------------------------------

 --------
 Chart5_5
 --------
 Symbolic Z-matrix:
 Charge =  0 Multiplicity = 1

                         Standard orientation:
 ---------------------------------------------------------------------
 Center     Atomic      Atomic             Coordinates (Angstroms)
 Number     Number       Type             X           Y           Z
 ---------------------------------------------------------------------
      1          6           0        1.086820    0.861814    0.007264
      2          6           0       -0.205895    1.392592   -0.012538
      3          6           0       -1.289539    0.510200   -0.027522
      4          6           0       -1.102933   -0.874848   -0.012485
      5          6           0        0.202845   -1.372003    0.007337
      6          6           0        1.309000   -0.517860    0.014224
      7          1           0        1.938128    1.536951    0.012873
      8          1           0       -2.299648    0.909774   -0.050501
      9          1           0        0.361882   -2.446823    0.012704
     10          6           0        2.713518   -1.073957   -0.007228
     11          1           0        2.764018   -2.048574    0.484116
     12          1           0        3.067053   -1.207099   -1.035767
     13          1           0        3.415699   -0.404129    0.494985
     14          6           0       -0.426798    2.886808    0.010748
     15          1           0       -0.481766    3.258869    1.039898
     16          1           0        0.388610    3.418764   -0.485387
     17          1           0       -1.361318    3.159966   -0.485164
     18          6           0       -2.286833   -1.812886    0.010738
     19          1           0       -2.596051   -2.028822    1.039514
     20          1           0       -3.148113   -1.380970   -0.504655
     21          1           0       -2.049608   -2.767069   -0.465844
 ---------------------------------------------------------------------

 SCF Done:  E(RB3LYP) =  -350.293600368     A.U. after   12 cycles

 The electronic state is 1-A.
 Alpha  occ. eigenvalues --  -10.17942 -10.17940 -10.17939 -10.16590 -10.16590
 Alpha  occ. eigenvalues --  -10.16589 -10.16263 -10.16259 -10.16257  -0.86031
 Alpha  occ. eigenvalues --   -0.78044  -0.78042  -0.70163  -0.67963  -0.67963
 Alpha  occ. eigenvalues --   -0.57317  -0.57314  -0.49718  -0.47862  -0.43192
 Alpha  occ. eigenvalues --   -0.42829  -0.41431  -0.41385  -0.40466  -0.40460
 Alpha  occ. eigenvalues --   -0.39576  -0.39567  -0.36635  -0.33566  -0.33537
 Alpha  occ. eigenvalues --   -0.33522  -0.23821  -0.23814
 Alpha virt. eigenvalues --   -0.00982  -0.00956   0.00316   0.01843   0.01856
 Alpha virt. eigenvalues --    0.03630   0.03652   0.03758   0.04819   0.05656
 Alpha virt. eigenvalues --    0.06402   0.06511   0.06982   0.07939   0.08017

 Mulliken charges:
               1
     1  C   -0.983205
     2  C    0.960756
     3  C   -1.010188
     4  C    0.953881
     5  C   -0.998379
     6  C    0.962674
     7  H    0.108523
     8  H    0.107592
     9  H    0.108259
    10  C   -0.515547
    11  H    0.138696
    12  H    0.166237
    13  H    0.138863
    14  C   -0.512931
    15  H    0.166087
    16  H    0.139019
    17  H    0.138862
    18  C   -0.513154
    19  H    0.166086
    20  H    0.139122
    21  H    0.138749
 Sum of Mulliken charges =   0.00000

 Dipole moment (field-independent basis, Debye):
    X=             -0.0006    Y=              0.0028    Z=              0.0394  Tot=              0.0395
 Quadrupole moment (field-independent basis, Debye-Ang):
   XX=            -52.0147   YY=            -52.0262   ZZ=            -59.1196
   XY=              0.0011   XZ=             -0.1140   YZ=              0.0449

 ESP charges:
               1
     1  C   -0.359166
     2  C    0.246911
     3  C   -0.369455
     4  C    0.256908
     5  C   -0.364158
     6  C    0.242078
     7  H    0.141226
     8  H    0.144041
     9  H    0.142208
    10  C   -0.164919
    11  H    0.046932
    12  H    0.047459
    13  H    0.046307
    14  C   -0.163841
    15  H    0.047768
    16  H    0.045352
    17  H    0.045296
    18  C   -0.183868
    19  H    0.053196
    20  H    0.050223
    21  H    0.049502
 Sum of ESP charges =   0.00000

 Summary of Natural Population Analysis:

                                       Natural Population
                Natural  -----------------------------------------------
    Atom  No    Charge         Core      Valence    Rydberg      Total
 -----------------------------------------------------------------------
      C    1   -0.21828      1.99894     4.20369    0.01565     6.21828
      C    2   -0.01673      1.99905     4.00228    0.01540     6.01673
      C    3   -0.21822      1.99894     4.20366    0.01562     6.21822
      C    4   -0.01677      1.99905     4.00231    0.01541     6.01677
      C    5   -0.21834      1.99894     4.20375    0.01564     6.21834
      C    6   -0.01662      1.99905     4.00217    0.01540     6.01662
      H    7    0.19819      0.00000     0.80005    0.00176     0.80181
      H    8    0.19816      0.00000     0.80006    0.00177     0.80184
      H    9    0.19817      0.00000     0.80006    0.00176     0.80183
      C   10   -0.58788      1.99931     4.57880    0.00977     6.58788
      H   11    0.20629      0.00000     0.79240    0.00131     0.79371
      H   12    0.21198      0.00000     0.78664    0.00139     0.78802
      H   13    0.20640      0.00000     0.79229    0.00131     0.79360
      C   14   -0.58783      1.99931     4.57876    0.00976     6.58783
      H   15    0.21196      0.00000     0.78666    0.00138     0.78804
      H   16    0.20640      0.00000     0.79228    0.00132     0.79360
      H   17    0.20630      0.00000     0.79238    0.00132     0.79370
      C   18   -0.58783      1.99931     4.57876    0.00976     6.58783
      H   19    0.21195      0.00000     0.78667    0.00138     0.78805
      H   20    0.20645      0.00000     0.79223    0.00132     0.79355
      H   21    0.20624      0.00000     0.79244    0.00132     0.79376
 =======================================================================
   * Total *    0.00000     17.99190    47.86836    0.13974    66.00000

 Normal termination of Gaussian 09 at Fri Jul 23 17:26:06 2021.
