 Gaussian 09, Revision D.01,
 Gaussian 09:  ES64L-G09RevD.01 24-Apr-2013

 ---------------------------------------------------------------------
 # b3lyp/6-311+g(d,p) geom=connectivity pop=(hirshfeld,chelpg,mbs,npa)
 ---------------------------------------------------------------------

 --------
 Chart5_2
 --------
 Symbolic Z-matrix:
 Charge =  0 Multiplicity = 1

                         Standard orientation:
 ---------------------------------------------------------------------
 Center     Atomic      Atomic             Coordinates (Angstroms)
 Number     Number       Type             X           Y           Z
 ---------------------------------------------------------------------
      1          6           0        0.000096    0.705075   -0.477688
      2          6           0        0.000096    1.382079    0.745042
      3          6           0        0.000040    0.695517    1.958017
      4          6           0       -0.000040   -0.695517    1.958017
      5          6           0       -0.000096   -1.382079    0.745042
      6          6           0       -0.000096   -0.705075   -0.477688
      7          1           0        0.000225    2.467620    0.745451
      8          1           0        0.000072    1.245120    2.892732
      9          1           0       -0.000072   -1.245120    2.892732
     10          1           0       -0.000225   -2.467620    0.745451
     11          6           0       -0.000270   -1.480182   -1.773045
     12          1           0       -0.001302   -2.555430   -1.585521
     13          1           0       -0.878932   -1.246534   -2.383683
     14          1           0        0.879345   -1.248123   -2.382932
     15          6           0        0.000270    1.480182   -1.773045
     16          1           0        0.878932    1.246534   -2.383683
     17          1           0       -0.879345    1.248123   -2.382932
     18          1           0        0.001302    2.555430   -1.585521
 ---------------------------------------------------------------------

 SCF Done:  E(RB3LYP) =  -310.965647969     A.U. after   12 cycles

 The electronic state is 1-A.
 Alpha  occ. eigenvalues --  -10.18123 -10.18074 -10.17060 -10.17026 -10.16989
 Alpha  occ. eigenvalues --  -10.16970 -10.16883 -10.16882  -0.86137  -0.77913
 Alpha  occ. eigenvalues --   -0.76462  -0.69980  -0.67567  -0.59858  -0.57584
 Alpha  occ. eigenvalues --   -0.50279  -0.47423  -0.44911  -0.43711  -0.41549
 Alpha  occ. eigenvalues --   -0.40644  -0.40327  -0.39034  -0.38777  -0.35209
 Alpha  occ. eigenvalues --   -0.33921  -0.33842  -0.24971  -0.24114
 Alpha virt. eigenvalues --   -0.01051  -0.00953   0.00324   0.01390   0.01751
 Alpha virt. eigenvalues --    0.03935   0.04339   0.04560   0.05428   0.06404
 Alpha virt. eigenvalues --    0.06804   0.07066   0.07796   0.08845   0.10268

 Mulliken charges:
               1
     1  C    0.293658
     2  C   -0.255555
     3  C   -0.078582
     4  C   -0.078582
     5  C   -0.255555
     6  C    0.293658
     7  H    0.110672
     8  H    0.121454
     9  H    0.121454
    10  H    0.110672
    11  C   -0.630082
    12  H    0.140450
    13  H    0.148938
    14  H    0.149047
    15  C   -0.630082
    16  H    0.148938
    17  H    0.149047
    18  H    0.140450
 Sum of Mulliken charges =   0.00000

 Dipole moment (field-independent basis, Debye):
    X=              0.0000    Y=              0.0000    Z=             -0.6834  Tot=              0.6834
 Quadrupole moment (field-independent basis, Debye-Ang):
   XX=            -52.9309   YY=            -45.8213   ZZ=            -45.9064
   XY=              0.0007   XZ=              0.0000   YZ=              0.0000

 ESP charges:
               1
     1  C    0.111605
     2  C   -0.212660
     3  C   -0.075389
     4  C   -0.075389
     5  C   -0.212660
     6  C    0.111605
     7  H    0.116889
     8  H    0.080621
     9  H    0.080621
    10  H    0.061611
    11  C   -0.203897
    12  H    0.059640
    13  H    0.061611
    14  H    0.061581
    15  C   -0.203897
    16  H    0.061611
    17  H    0.061581
    18  H    0.059640
 Sum of ESP charges =   0.00000

 Summary of Natural Population Analysis:

                                       Natural Population
                Natural  -----------------------------------------------
    Atom  No    Charge         Core      Valence    Rydberg      Total
 -----------------------------------------------------------------------
      C    1   -0.03214      1.99896     4.01780    0.01538     6.03214
      C    2   -0.19998      1.99906     4.18334    0.01759     6.19998
      C    3   -0.20638      1.99916     4.18870    0.01852     6.20638
      C    4   -0.20638      1.99916     4.18870    0.01852     6.20638
      C    5   -0.19998      1.99906     4.18334    0.01759     6.19998
      C    6   -0.03214      1.99896     4.01780    0.01538     6.03214
      H    7    0.20041      0.00000     0.79784    0.00175     0.79959
      H    8    0.20422      0.00000     0.79423    0.00155     0.79578
      H    9    0.20422      0.00000     0.79423    0.00155     0.79578
      H   10    0.20041      0.00000     0.79784    0.00175     0.79959
      C   11   -0.59142      1.99931     4.58243    0.00969     6.59142
      H   12    0.20674      0.00000     0.79185    0.00142     0.79326
      H   13    0.20927      0.00000     0.78919    0.00154     0.79073
      H   14    0.20928      0.00000     0.78918    0.00154     0.79072
      C   15   -0.59142      1.99931     4.58243    0.00969     6.59142
      H   16    0.20927      0.00000     0.78919    0.00154     0.79073
      H   17    0.20928      0.00000     0.78918    0.00154     0.79072
      H   18    0.20674      0.00000     0.79185    0.00142     0.79326
 =======================================================================
   * Total *    0.00000     15.99296    41.86911    0.13793    58.00000

 Normal termination of Gaussian 09 at Fri Jul 23 17:25:29 2021.
