 Gaussian 09, Revision D.01,
 Gaussian 09:  ES64L-G09RevD.01 24-Apr-2013

 ----------------------------------------------------------------------
 # opt freq=noraman b3lyp/6-311+g(d,p) geom=connectivity pop=(hirshfeld
 ,chelpg,mbs,npa)
 ----------------------------------------------------------------------

 -------------------
 Title Card Required
 -------------------
 Symbolic Z-matrix:
 Charge =  0 Multiplicity = 1

 SCF Done:  E(RB3LYP) =  -438.170098371     A.U. after   14 cycles
 SCF Done:  E(RB3LYP) =  -438.184511445     A.U. after   13 cycles
 SCF Done:  E(RB3LYP) =  -438.185158958     A.U. after   12 cycles
 SCF Done:  E(RB3LYP) =  -438.185251923     A.U. after   11 cycles
 SCF Done:  E(RB3LYP) =  -438.185066403     A.U. after   12 cycles
 SCF Done:  E(RB3LYP) =  -438.185262385     A.U. after   11 cycles
 SCF Done:  E(RB3LYP) =  -438.185261051     A.U. after   11 cycles
 SCF Done:  E(RB3LYP) =  -438.185263008     A.U. after   10 cycles
 Optimization completed.
    -- Stationary point found.
 Normal termination of Gaussian 09 at Fri Dec 16 11:44:25 2022.

 ----------------------------------------------------------------------
 #N Geom=AllCheck Guess=TCheck SCRF=Check GenChk RB3LYP/6-311+G(d,p) Fr
 eq
 ----------------------------------------------------------------------

 Structure from the checkpoint file:  "tetRev_Scheme11_1.chk"
 -------------------
 Title Card Required
 -------------------
 Charge =  0 Multiplicity = 1

                         Standard orientation:
 ---------------------------------------------------------------------
 Center     Atomic      Atomic             Coordinates (Angstroms)
 Number     Number       Type             X           Y           Z
 ---------------------------------------------------------------------
      1          6           0        0.476524   -0.011057   -0.000020
      2          6           0        1.161429   -1.217752    0.000002
      3          6           0        2.542487   -0.917296   -0.000042
      4          6           0        2.665389    0.463204    0.000077
      5          7           0        1.413798    0.997771   -0.000003
      6          1           0        1.166305    1.975908   -0.000027
      7          1           0        0.702788   -2.193272   -0.000005
      8          1           0        3.359482   -1.621529   -0.000076
      9          1           0        3.542932    1.089561    0.000133
     10          6           0       -0.936553    0.341212   -0.000049
     11          8           0       -1.348668    1.486232   -0.000028
     12          8           0       -1.739625   -0.743152    0.000001
     13          6           0       -3.152600   -0.475958    0.000042
     14          1           0       -3.630916   -1.452951    0.000358
     15          1           0       -3.435370    0.089825    0.888951
     16          1           0       -3.435511    0.089301   -0.889159
 ---------------------------------------------------------------------

 SCF Done:  E(RB3LYP) =  -438.185263008     A.U. after    1 cycles

 The electronic state is 1-A.
 Alpha  occ. eigenvalues --  -19.17150 -19.11193 -14.37409 -10.30710 -10.22799
 Alpha  occ. eigenvalues --  -10.21401 -10.21123 -10.17757 -10.17248  -1.11174
 Alpha  occ. eigenvalues --   -1.02517  -0.99640  -0.79427  -0.77369  -0.72188
 Alpha  occ. eigenvalues --   -0.62307  -0.60436  -0.58732  -0.55204  -0.49027
 Alpha  occ. eigenvalues --   -0.48265  -0.47899  -0.44790  -0.43568  -0.42631
 Alpha  occ. eigenvalues --   -0.41264  -0.40246  -0.39456  -0.36614  -0.31317
 Alpha  occ. eigenvalues --   -0.29031  -0.26663  -0.23693
 Alpha virt. eigenvalues --   -0.04141  -0.00154   0.01118   0.02369   0.02904
 Alpha virt. eigenvalues --    0.03296   0.04312   0.04589   0.05007   0.06240
 Alpha virt. eigenvalues --    0.06391   0.06806   0.08818   0.09918   0.09954

 Mulliken charges:
               1
     1  C    0.182155
     2  C    0.236842
     3  C   -0.297508
     4  C   -0.046916
     5  N   -0.156800
     6  H    0.301889
     7  H    0.132009
     8  H    0.125134
     9  H    0.123257
    10  C   -0.414450
    11  O   -0.315191
    12  O   -0.165422
    13  C   -0.168500
    14  H    0.150850
    15  H    0.156328
    16  H    0.156322
 Sum of Mulliken charges =   0.00000

 Dipole moment (field-independent basis, Debye):
    X=              0.6342    Y=             -0.3929    Z=              0.0001  Tot=              0.7461
 Quadrupole moment (field-independent basis, Debye-Ang):
   XX=            -42.0530   YY=            -51.7021   ZZ=            -55.2192
   XY=              6.4944   XZ=             -0.0001   YZ=              0.0002

  Exact polarizability: 121.323  -2.868  85.577   0.001   0.000  52.811
 Approx polarizability: 164.050  -8.948 144.539   0.002   0.001  76.550

 ESP charges:
               1
     1  C   -0.211918
     2  C   -0.060102
     3  C   -0.141217
     4  C   -0.100826
     5  N   -0.139524
     6  H    0.275385
     7  H    0.092979
     8  H    0.105818
     9  H    0.131984
    10  C    0.801650
    11  O   -0.587572
    12  O   -0.408471
    13  C    0.072165
    14  H    0.061981
    15  H    0.053848
    16  H    0.053820
 Sum of ESP charges =   0.00000

 Summary of Natural Population Analysis:

                                       Natural Population
                Natural  -----------------------------------------------
    Atom  No    Charge         Core      Valence    Rydberg      Total
 -----------------------------------------------------------------------
      C    1    0.00885      1.99901     3.96796    0.02418     5.99115
      C    2   -0.22077      1.99910     4.20558    0.01609     6.22077
      C    3   -0.29507      1.99919     4.27861    0.01727     6.29507
      C    4   -0.01088      1.99925     3.98886    0.02278     6.01088
      N    5   -0.50377      1.99932     5.48931    0.01514     7.50377
      H    6    0.42569      0.00000     0.57194    0.00236     0.57431
      H    7    0.22777      0.00000     0.77068    0.00156     0.77223
      H    8    0.21904      0.00000     0.77954    0.00143     0.78096
      H    9    0.20899      0.00000     0.78964    0.00137     0.79101
      C   10    0.76821      1.99923     3.18662    0.04594     5.23179
      O   11   -0.62696      1.99976     6.61520    0.01200     8.62696
      O   12   -0.54570      1.99973     6.53167    0.01431     8.54570
      C   13   -0.21416      1.99925     4.19870    0.01621     6.21416
      H   14    0.18643      0.00000     0.81245    0.00112     0.81357
      H   15    0.18617      0.00000     0.81199    0.00184     0.81383
      H   16    0.18615      0.00000     0.81200    0.00184     0.81385
 =======================================================================
   * Total *    0.00000     17.99382    47.81073    0.19545    66.00000

                      1                      2                      3
                      A                      A                      A
 Frequencies --     93.8021               101.4531               131.4063
 Red. masses --      2.8790                 1.8349                 1.8993
 Frc consts  --      0.0149                 0.0111                 0.0193
 IR Inten    --      4.1009                 3.3318                 0.2159

                      4                      5                      6
                      A                      A                      A
 Frequencies --    147.8056               217.9718               314.5160
 Red. masses --      3.9847                 5.2476                 4.3927
 Frc consts  --      0.0513                 0.1469                 0.2560
 IR Inten    --      3.2678                 1.0101                22.9225

                      7                      8                      9
                      A                      A                      A
 Frequencies --    394.6614               503.9025               568.3136
 Red. masses --      5.5036                 6.9725                 1.8571
 Frc consts  --      0.5051                 1.0431                 0.3534
 IR Inten    --      0.0818                 2.0223                58.5232

                     10                     11                     12
                      A                      A                      A
 Frequencies --    622.1913               648.8429               745.1044
 Red. masses --      3.6282                 1.7893                 1.2265
 Frc consts  --      0.8275                 0.4438                 0.4012
 IR Inten    --      0.5944                 6.6562                85.5414

                     13                     14                     15
                      A                      A                      A
 Frequencies --    777.0413               801.6135               840.2430
 Red. masses --      4.4493                 5.4039                 1.4526
 Frc consts  --      1.5828                 2.0459                 0.6042
 IR Inten    --     42.1699                 5.0869                 7.5151

                     16                     17                     18
                      A                      A                      A
 Frequencies --    900.0895               901.8371               944.5277
 Red. masses --      5.6850                 1.3525                 4.5628
 Frc consts  --      2.7137                 0.6481                 2.3983
 IR Inten    --      1.9040                 0.4927                10.5839

                     19                     20                     21
                      A                      A                      A
 Frequencies --   1005.0033              1054.3923              1102.0041
 Red. masses --      3.5369                 1.3308                 1.8357
 Frc consts  --      2.1048                 0.8717                 1.3135
 IR Inten    --     49.0927                22.8360                 0.7762

                     22                     23                     24
                      A                      A                      A
 Frequencies --   1129.2708              1170.8812              1185.6921
 Red. masses --      1.4271                 1.2763                 3.0766
 Frc consts  --      1.0723                 1.0309                 2.5484
 IR Inten    --    143.6072                 0.7078               153.2195

                     25                     26                     27
                      A                      A                      A
 Frequencies --   1214.2384              1277.8683              1339.2722
 Red. masses --      1.8824                 1.4803                 4.6507
 Frc consts  --      1.6352                 1.4242                 4.9148
 IR Inten    --    143.4262                 1.4334               279.3430

                     28                     29                     30
                      A                      A                      A
 Frequencies --   1438.4490              1456.9135              1473.9357
 Red. masses --      3.7808                 3.9022                 1.4794
 Frc consts  --      4.6092                 4.8800                 1.8936
 IR Inten    --    122.5925                13.9633                72.8950

                     31                     32                     33
                      A                      A                      A
 Frequencies --   1475.5059              1482.7794              1498.7686
 Red. masses --      2.5102                 1.0449                 1.0557
 Frc consts  --      3.2199                 1.3536                 1.3972
 IR Inten    --     12.9937                 9.5497                 6.1219

                     34                     35                     36
                      A                      A                      A
 Frequencies --   1586.9623              1739.7387              3048.9082
 Red. masses --      3.8064                11.4759                 1.0298
 Frc consts  --      5.6481                20.4646                 5.6402
 IR Inten    --     35.3467               420.9558                39.4009

                     37                     38                     39
                      A                      A                      A
 Frequencies --   3120.3751              3155.3237              3238.6325
 Red. masses --      1.1070                 1.1059                 1.0902
 Frc consts  --      6.3505                 6.4870                 6.7371
 IR Inten    --     20.2202                14.6982                 2.9466

                     40                     41                     42
                      A                      A                      A
 Frequencies --   3256.2487              3263.4099              3644.2914
 Red. masses --      1.0968                 1.1044                 1.0810
 Frc consts  --      6.8518                 6.9297                 8.4585
 IR Inten    --      0.3764                 0.4679               100.2810

 - Thermochemistry -
 -------------------
 Temperature   298.150 Kelvin.  Pressure   1.00000 Atm.
 Atom     1 has atomic number  6 and mass  12.00000

 Molecular mass:   125.04768 amu.
 Principal axes and moments of inertia in atomic units:
                           1         2         3
     Eigenvalues --   389.188421719.799352097.60886
           X            0.99995   0.01027   0.00000
           Y           -0.01027   0.99995   0.00000
           Z            0.00000   0.00000   1.00000
 This molecule is an asymmetric top.
 Rotational symmetry number  1.
 Rotational temperatures (Kelvin)      0.22255     0.05036     0.04129
 Rotational constants (GHZ):           4.63719     1.04939     0.86038
 Zero-point vibrational energy     329057.9 (Joules/Mol)
                                   78.64673 (Kcal/Mol)
 Warning -- explicit consideration of   9 degrees of freedom as
           vibrations may cause significant error
 Vibrational temperatures:    134.96   145.97   189.06   212.66   313.61
          (Kelvin)            452.52   567.83   725.00   817.68   895.19
                              933.54  1072.04  1117.99  1153.34  1208.92
                             1295.03  1297.54  1358.96  1445.97  1517.03
                             1585.54  1624.77  1684.63  1705.94  1747.02
                             1838.57  1926.91  2069.60  2096.17  2120.66
                             2122.92  2133.39  2156.39  2283.28  2503.09
                             4386.69  4489.52  4539.80  4659.66  4685.01
                             4695.31  5243.32

 Zero-point correction=                           0.125332 (Hartree/Particle)
 Thermal correction to Energy=                    0.133604
 Thermal correction to Enthalpy=                  0.134548
 Thermal correction to Gibbs Free Energy=         0.091879
 Sum of electronic and zero-point Energies=           -438.059931
 Sum of electronic and thermal Energies=              -438.051659
 Sum of electronic and thermal Enthalpies=            -438.050715
 Sum of electronic and thermal Free Energies=         -438.093384

                     E (Thermal)             CV                S
                      KCal/Mol        Cal/Mol-Kelvin    Cal/Mol-Kelvin
 Total                   83.838             29.734             89.806
 Electronic               0.000              0.000              0.000
 Translational            0.889              2.981             40.384
 Rotational               0.889              2.981             28.731
 Vibrational             82.060             23.772             20.690
 Vibration     1          0.603              1.954              3.579
 Vibration     2          0.604              1.948              3.426
 Vibration     3          0.612              1.922              2.925
 Vibration     4          0.617              1.905              2.700
 Vibration     5          0.646              1.814              1.976
 Vibration     6          0.702              1.646              1.338
 Vibration     7          0.762              1.482              0.982
 Vibration     8          0.859              1.241              0.648
 Vibration     9          0.924              1.100              0.507

 Optimization completed.
    -- Stationary point found.
 Normal termination of Gaussian 09 at Fri Dec 16 11:45:30 2022.
