 Gaussian 09, Revision D.01,
 Gaussian 09:  ES64L-G09RevD.01 24-Apr-2013

 ---------------------------------------------------------------------
 # b3lyp/6-311+g(d,p) geom=connectivity pop=(hirshfeld,chelpg,mbs,npa)
 ---------------------------------------------------------------------

 --------
 Table6_3
 --------
 Symbolic Z-matrix:
 Charge =  0 Multiplicity = 1

                         Standard orientation:
 ---------------------------------------------------------------------
 Center     Atomic      Atomic             Coordinates (Angstroms)
 Number     Number       Type             X           Y           Z
 ---------------------------------------------------------------------
      1          6           0        1.927125   -0.229189    0.000005
      2          6           0        1.641145    1.109438    0.000032
      3          6           0        0.247175    1.371070   -0.000046
      4          6           0       -0.508868    0.220758    0.000015
      5         16           0        0.503926   -1.203880   -0.000012
      6          1           0        2.896437   -0.704403    0.000016
      7          1           0        2.399435    1.880382    0.000052
      8          1           0       -0.192873    2.358738   -0.000072
      9          6           0       -1.917623    0.116253    0.000017
     10          7           0       -3.071362    0.028196    0.000007
 ---------------------------------------------------------------------

 SCF Done:  E(RB3LYP) =  -645.338758563     A.U. after   14 cycles

 The electronic state is 1-A.
 Alpha  occ. eigenvalues --  -88.91316 -14.32602 -10.25412 -10.23488 -10.22569
 Alpha  occ. eigenvalues --  -10.21768 -10.20979  -7.99901  -5.96199  -5.95809
 Alpha  occ. eigenvalues --   -5.95497  -0.93262  -0.91142  -0.78211  -0.77417
 Alpha  occ. eigenvalues --   -0.65004  -0.59594  -0.55845  -0.47711  -0.44195
 Alpha  occ. eigenvalues --   -0.43516  -0.43002  -0.38434  -0.37745  -0.36688
 Alpha  occ. eigenvalues --   -0.34860  -0.28964  -0.26841
 Alpha virt. eigenvalues --   -0.07585  -0.02113  -0.00703  -0.00042   0.00411
 Alpha virt. eigenvalues --    0.01777   0.01982   0.03485   0.03787   0.04447
 Alpha virt. eigenvalues --    0.05818   0.07335   0.07660   0.08604   0.08940

 Mulliken charges:
               1
     1  C    0.034690
     2  C   -0.339438
     3  C    0.174346
     4  C    1.163896
     5  S   -0.156305
     6  H    0.173792
     7  H    0.142799
     8  H    0.148828
     9  C   -1.154403
    10  N   -0.188206
 Sum of Mulliken charges =   0.00000

 Dipole moment (field-independent basis, Debye):
    X=              4.8231    Y=              0.7375    Z=              0.0000  Tot=              4.8791
 Quadrupole moment (field-independent basis, Debye-Ang):
   XX=            -55.7883   YY=            -42.6021   ZZ=            -49.8783
   XY=             -0.4088   XZ=              0.0001   YZ=              0.0000

 ESP charges:
               1
     1  C   -0.182269
     2  C   -0.068009
     3  C   -0.037121
     4  C   -0.166521
     5  S    0.080302
     6  H    0.176384
     7  H    0.102591
     8  H    0.103770
     9  C    0.503704
    10  N   -0.512830
 Sum of ESP charges =   0.00000

 Summary of Natural Population Analysis:

                                       Natural Population
                Natural  -----------------------------------------------
    Atom  No    Charge         Core      Valence    Rydberg      Total
 -----------------------------------------------------------------------
      C    1   -0.36967      1.99913     4.34909    0.02145     6.36967
      C    2   -0.25513      1.99910     4.23780    0.01822     6.25513
      C    3   -0.18374      1.99903     4.16655    0.01817     6.18374
      C    4   -0.33532      1.99880     4.31646    0.02005     6.33532
      S    5    0.48333      9.99890     5.47462    0.04315    15.51667
      H    6    0.23655      0.00000     0.76207    0.00138     0.76345
      H    7    0.22875      0.00000     0.76977    0.00147     0.77125
      H    8    0.23313      0.00000     0.76542    0.00145     0.76687
      C    9    0.26113      1.99920     3.70655    0.03312     5.73887
      N   10   -0.29904      1.99959     5.27888    0.02057     7.29904
 =======================================================================
   * Total *    0.00000     21.99376    33.82721    0.17903    56.00000

 Normal termination of Gaussian 09 at Fri Jul 23 17:35:45 2021.
