 Gaussian 09, Revision D.01,
 Gaussian 09:  ES64L-G09RevD.01 24-Apr-2013

 ---------------------------------------------------------------------
 # b3lyp/6-311+g(d,p) geom=connectivity pop=(hirshfeld,chelpg,mbs,npa)
 ---------------------------------------------------------------------

 --------
 Chart2_4
 --------
 Symbolic Z-matrix:
 Charge =  0 Multiplicity = 1

                         Standard orientation:
 ---------------------------------------------------------------------
 Center     Atomic      Atomic             Coordinates (Angstroms)
 Number     Number       Type             X           Y           Z
 ---------------------------------------------------------------------
      1          6           0        0.505299    0.584475   -0.000637
      2          6           0        1.656065   -0.430448   -0.000101
      3          1           0        0.617342    1.236451   -0.877284
      4          1           0        0.617602    1.237760    0.875002
      5          6           0        3.030445    0.248168    0.000024
      6          1           0        1.581015   -1.082667    0.876485
      7          1           0        1.581358   -1.083081   -0.876418
      8          1           0        3.838891   -0.488423    0.000295
      9          1           0        3.159440    0.882303   -0.882912
     10          1           0        3.159114    0.882603    0.882793
     11          6           0       -1.204083   -0.823408   -1.257779
     12          6           0       -1.911045    1.225147   -0.000694
     13          1           0       -0.577092   -1.718517   -1.283906
     14          1           0       -2.247372   -1.153184   -1.290246
     15          1           0       -1.008556   -0.249165   -2.169365
     16          1           0       -1.761880    1.853181    0.883344
     17          1           0       -1.761929    1.852046   -0.885548
     18          1           0       -2.952568    0.888695   -0.000456
     19          6           0       -0.942107    0.026998    0.000010
     20          6           0       -1.203606   -0.821602    1.259119
     21          1           0       -2.247060   -1.150712    1.292848
     22          1           0       -0.577092   -1.717020    1.285930
     23          1           0       -1.007017   -0.246251    2.169781
 ---------------------------------------------------------------------

 SCF Done:  E(RB3LYP) =  -276.476632477     A.U. after   11 cycles

 The electronic state is 1-A.
 Alpha  occ. eigenvalues --  -10.18140 -10.16304 -10.16056 -10.15705 -10.15459
 Alpha  occ. eigenvalues --  -10.15459 -10.15440  -0.82618  -0.76810  -0.68440
 Alpha  occ. eigenvalues --   -0.68423  -0.67573  -0.59358  -0.53078  -0.46804
 Alpha  occ. eigenvalues --   -0.45870  -0.43886  -0.43657  -0.40801  -0.39360
 Alpha  occ. eigenvalues --   -0.39066  -0.36702  -0.36606  -0.36343  -0.34758
 Alpha  occ. eigenvalues --   -0.33411  -0.31755  -0.31381  -0.30855
 Alpha virt. eigenvalues --    0.00096   0.01704   0.02185   0.02528   0.04038
 Alpha virt. eigenvalues --    0.04480   0.04740   0.05397   0.05738   0.06306
 Alpha virt. eigenvalues --    0.07298   0.08085   0.08464   0.08716   0.09361

 Mulliken charges:
               1
     1  C   -0.318375
     2  C   -0.159652
     3  H    0.132663
     4  H    0.132647
     5  C   -0.583640
     6  H    0.130705
     7  H    0.130727
     8  H    0.136202
     9  H    0.132869
    10  H    0.132871
    11  C   -0.498996
    12  C   -0.526873
    13  H    0.130161
    14  H    0.134660
    15  H    0.136605
    16  H    0.135618
    17  H    0.135611
    18  H    0.136303
    19  C    0.447475
    20  C   -0.499019
    21  H    0.134663
    22  H    0.130158
    23  H    0.136616
 Sum of Mulliken charges =   0.00000

 Dipole moment (field-independent basis, Debye):
    X=              0.0335    Y=             -0.0696    Z=              0.0000  Tot=              0.0772
 Quadrupole moment (field-independent basis, Debye-Ang):
   XX=            -49.9755   YY=            -49.7380   ZZ=            -49.2593
   XY=             -0.1517   XZ=             -0.0002   YZ=              0.0002

 ESP charges:
               1
     1  C   -0.177457
     2  C    0.202523
     3  H    0.011891
     4  H    0.011793
     5  C   -0.185575
     6  H   -0.039787
     7  H   -0.039768
     8  H    0.032982
     9  H    0.037739
    10  H    0.037763
    11  C   -0.299152
    12  C   -0.368001
    13  H    0.043040
    14  H    0.048859
    15  H    0.049952
    16  H    0.060862
    17  H    0.060675
    18  H    0.072115
    19  C    0.596952
    20  C   -0.299519
    21  H    0.048885
    22  H    0.043181
    23  H    0.050047
 Sum of ESP charges =   0.00000

 Summary of Natural Population Analysis:

                                       Natural Population
                Natural  -----------------------------------------------
    Atom  No    Charge         Core      Valence    Rydberg      Total
 -----------------------------------------------------------------------
      C    1   -0.37532      1.99920     4.35836    0.01776     6.37532
      C    2   -0.38882      1.99931     4.37733    0.01219     6.38882
      H    3    0.19326      0.00000     0.80500    0.00173     0.80674
      H    4    0.19326      0.00000     0.80500    0.00174     0.80674
      C    5   -0.56981      1.99938     4.56164    0.00879     6.56981
      H    6    0.19051      0.00000     0.80747    0.00202     0.80949
      H    7    0.19051      0.00000     0.80747    0.00202     0.80949
      H    8    0.19939      0.00000     0.79949    0.00112     0.80061
      H    9    0.19258      0.00000     0.80580    0.00162     0.80742
      H   10    0.19258      0.00000     0.80580    0.00162     0.80742
      C   11   -0.57433      1.99929     4.56263    0.01241     6.57433
      C   12   -0.56729      1.99929     4.55595    0.01204     6.56729
      H   13    0.19942      0.00000     0.79925    0.00133     0.80058
      H   14    0.19966      0.00000     0.79905    0.00129     0.80034
      H   15    0.19896      0.00000     0.79982    0.00122     0.80104
      H   16    0.19890      0.00000     0.79983    0.00127     0.80110
      H   17    0.19889      0.00000     0.79984    0.00127     0.80111
      H   18    0.19863      0.00000     0.80012    0.00126     0.80137
      C   19   -0.09469      1.99921     4.08062    0.01486     6.09469
      C   20   -0.57433      1.99929     4.56263    0.01241     6.57433
      H   21    0.19966      0.00000     0.79905    0.00129     0.80034
      H   22    0.19942      0.00000     0.79925    0.00133     0.80058
      H   23    0.19896      0.00000     0.79982    0.00122     0.80104
 =======================================================================
   * Total *    0.00000     13.99497    43.89123    0.11380    58.00000

 Normal termination of Gaussian 09 at Fri Jul 23 17:22:24 2021.
