 Gaussian 09, Revision D.01,
 Gaussian 09:  ES64L-G09RevD.01 24-Apr-2013

 ----------------------------------------------------------------------
 # opt freq=noraman b3lyp/6-311+g(d,p) pop=(npa,hirshfeld,mbs) geom=con
 nectivity
 ----------------------------------------------------------------------

 --------
 Table6_2
 --------
 Symbolic Z-matrix:
 Charge =  0 Multiplicity = 1

 SCF Done:  E(RB3LYP) =  -3126.61028053     A.U. after   14 cycles
 SCF Done:  E(RB3LYP) =  -3126.61028062     A.U. after    8 cycles
 Optimization completed.
    -- Stationary point found.
 Normal termination of Gaussian 09 at Thu Aug 29 12:14:03 2024.

 ----------------------------------------------------------------------
 #N Geom=AllCheck Guess=TCheck SCRF=Check GenChk RB3LYP/6-311+G(d,p) Fr
 eq
 ----------------------------------------------------------------------

 Structure from the checkpoint file:  "Table6_2_Fixed.chk"
 --------
 Table6_2
 --------
 Charge =  0 Multiplicity = 1

                         Standard orientation:
 ---------------------------------------------------------------------
 Center     Atomic      Atomic             Coordinates (Angstroms)
 Number     Number       Type             X           Y           Z
 ---------------------------------------------------------------------
      1          6           0       -2.585882   -0.198990   -0.000234
      2          6           0       -2.264439    1.127237    0.000430
      3          6           0       -0.856354    1.363916   -0.000366
      4          6           0       -0.144491    0.199696    0.000105
      5         16           0       -1.170483   -1.203831    0.000135
      6          1           0       -3.563967   -0.655006   -0.000654
      7          1           0       -3.002789    1.918035    0.000542
      8          1           0       -0.398611    2.343039   -0.000570
      9         35           0        1.737146    0.020116   -0.000031
 ---------------------------------------------------------------------

 SCF Done:  E(RB3LYP) =  -3126.61028062     A.U. after    1 cycles

 The electronic state is 1-A.
 Alpha  occ. eigenvalues -- -482.84676 -88.89464 -62.49941 -56.31996 -56.31577
 Alpha  occ. eigenvalues --  -56.31576 -10.25643 -10.21333 -10.19428 -10.19331
 Alpha  occ. eigenvalues --   -8.70904  -7.98064  -6.54103  -6.52712  -6.52704
 Alpha  occ. eigenvalues --   -5.94370  -5.93983  -5.93640  -2.65186  -2.64783
 Alpha  occ. eigenvalues --   -2.64774  -2.63672  -2.63672  -0.90599  -0.81846
 Alpha  occ. eigenvalues --   -0.75539  -0.71934  -0.57960  -0.55731  -0.52116
 Alpha  occ. eigenvalues --   -0.42754  -0.41910  -0.40747  -0.40431  -0.36535
 Alpha  occ. eigenvalues --   -0.32613  -0.30504  -0.27171  -0.24223
 Alpha virt. eigenvalues --   -0.03872  -0.02666  -0.00318   0.00081   0.02528
 Alpha virt. eigenvalues --    0.02651   0.02738   0.04130   0.04711   0.04838
 Alpha virt. eigenvalues --    0.05794   0.07068   0.07115   0.08136   0.09364

 Mulliken charges:
               1
     1  C   -0.024757
     2  C   -0.328455
     3  C    0.001686
     4  C    0.006218
     5  S   -0.065638
     6  H    0.174547
     7  H    0.137129
     8  H    0.146733
     9  Br  -0.047462
 Sum of Mulliken charges =   0.00000

 Dipole moment (field-independent basis, Debye):
    X=             -1.4474    Y=              0.6037    Z=             -0.0004  Tot=              1.5682
 Quadrupole moment (field-independent basis, Debye-Ang):
   XX=            -48.3754   YY=            -51.6371   ZZ=            -58.2424
   XY=             -0.2470   XZ=              0.0012   YZ=             -0.0001

  Exact polarizability: 108.094  -2.307  82.597  -0.005   0.003  50.279
 Approx polarizability: 167.552  -4.251 145.962   0.009   0.000  75.704

 Summary of Natural Population Analysis:

                                       Natural Population
                Natural  -----------------------------------------------
    Atom  No    Charge         Core      Valence    Rydberg      Total
 -----------------------------------------------------------------------
      C    1   -0.38913      1.99911     4.36892    0.02110     6.38913
      C    2   -0.24584      1.99910     4.22810    0.01865     6.24584
      C    3   -0.27714      1.99882     4.25668    0.02163     6.27714
      C    4   -0.35381      1.99873     4.32770    0.02738     6.35381
      S    5    0.45085      9.99869     5.50491    0.04555    15.54915
      H    6    0.23180      0.00000     0.76671    0.00150     0.76820
      H    7    0.22356      0.00000     0.77480    0.00164     0.77644
      H    8    0.23203      0.00000     0.76636    0.00161     0.76797
     Br    9    0.12768     27.99911     6.85178    0.02142    34.87232
 =======================================================================
   * Total *    0.00000     45.99355    31.84596    0.16048    78.00000

                      1                      2                      3
                      A                      A                      A
 Frequencies --    185.6616               214.7207               330.6653
 Red. masses --      6.0544                10.0343                10.9421
 Frc consts  --      0.1230                 0.2726                 0.7049
 IR Inten    --      1.3661                 0.2816                 1.2161

                      4                      5                      6
                      A                      A                      A
 Frequencies --    456.2265               557.6567               637.9576
 Red. masses --      5.6635                 3.0711                11.2096
 Frc consts  --      0.6945                 0.5627                 2.6880
 IR Inten    --      4.2284                 0.4615                 4.8561

                      7                      8                      9
                      A                      A                      A
 Frequencies --    694.3256               734.1979               830.2492
 Red. masses --      1.1793                 7.2909                 1.2907
 Frc consts  --      0.3350                 2.3156                 0.5242
 IR Inten    --     83.7865                 0.1791                11.8897

                     10                     11                     12
                      A                      A                      A
 Frequencies --    845.2083               910.6896               969.0144
 Red. masses --      4.3001                 1.3167                 6.0538
 Frc consts  --      1.8099                 0.6434                 3.3492
 IR Inten    --     20.3783                 0.1412                35.1513

                     13                     14                     15
                      A                      A                      A
 Frequencies --   1064.0784              1108.4309              1244.1071
 Red. masses --      1.8047                 1.1162                 1.4396
 Frc consts  --      1.2039                 0.8080                 1.3128
 IR Inten    --      4.8054                 1.5962                10.0991

                     16                     17                     18
                      A                      A                      A
 Frequencies --   1368.8700              1443.8270              1556.0095
 Red. masses --      2.2713                 6.7379                 4.9308
 Frc consts  --      2.5076                 8.2757                 7.0338
 IR Inten    --      1.7175                40.7679                 3.9539

                     19                     20                     21
                      A                      A                      A
 Frequencies --   3203.6479              3223.3971              3245.9048
 Red. masses --      1.0891                 1.0958                 1.0981
 Frc consts  --      6.5859                 6.7082                 6.8167
 IR Inten    --      3.8358                 0.2302                 0.6966

 - Thermochemistry -
 -------------------
 Temperature   298.150 Kelvin.  Pressure   1.00000 Atm.
 Atom     1 has atomic number  6 and mass  12.00000

 Molecular mass:   161.91388 amu.
 Principal axes and moments of inertia in atomic units:
                           1         2         3
     Eigenvalues --   337.187641613.366271950.55386
           X            0.99990  -0.01417   0.00002
           Y            0.01417   0.99990   0.00005
           Z           -0.00002  -0.00005   1.00000
 This molecule is an asymmetric top.
 Rotational symmetry number  1.
 Rotational temperatures (Kelvin)      0.25687     0.05369     0.04440
 Rotational constants (GHZ):           5.35234     1.11862     0.92525
 Zero-point vibrational energy     148485.6 (Joules/Mol)
                                   35.48890 (Kcal/Mol)
 Warning -- explicit consideration of   5 degrees of freedom as
           vibrations may cause significant error
 Vibrational temperatures:    267.13   308.93   475.75   656.41   802.34
          (Kelvin)            917.88   998.98  1056.35  1194.54  1216.06
                             1310.28  1394.19  1530.97  1594.78  1789.99
                             1969.50  2077.34  2238.75  4609.33  4637.74
                             4670.13

 Zero-point correction=                           0.056555 (Hartree/Particle)
 Thermal correction to Energy=                    0.062006
 Thermal correction to Enthalpy=                  0.062950
 Thermal correction to Gibbs Free Energy=         0.025784
 Sum of electronic and zero-point Energies=          -3126.553725
 Sum of electronic and thermal Energies=             -3126.548275
 Sum of electronic and thermal Enthalpies=           -3126.547331
 Sum of electronic and thermal Free Energies=        -3126.584496

                     E (Thermal)             CV                S
                      KCal/Mol        Cal/Mol-Kelvin    Cal/Mol-Kelvin
 Total                   38.909             19.394             78.222
 Electronic               0.000              0.000              0.000
 Translational            0.889              2.981             41.154
 Rotational               0.889              2.981             28.453
 Vibrational             37.132             13.433              8.615
 Vibration     1          0.632              1.859              2.271
 Vibration     2          0.645              1.819              2.003
 Vibration     3          0.713              1.614              1.257
 Vibration     4          0.814              1.347              0.777
 Vibration     5          0.913              1.123              0.529

 Optimization completed.
    -- Stationary point found.
 Normal termination of Gaussian 09 at Thu Aug 29 12:14:31 2024.
