 Gaussian 09, Revision D.01,
 Gaussian 09:  ES64L-G09RevD.01 24-Apr-2013

 ----------------------------------------------------------------------
 # opt freq=noraman b3lyp/6-311+g(d,p) pop=(npa,hirshfeld,chelpg,mbs) g
 eom=connectivity
 ----------------------------------------------------------------------

 -------------------
 Title Card Required
 -------------------
 Symbolic Z-matrix:
 Charge =  0 Multiplicity = 1

 SCF Done:  E(RB3LYP) =  -823.512923726     A.U. after   16 cycles
 Optimization completed.
    -- Stationary point found.
 Normal termination of Gaussian 09 at Fri Apr 26 11:23:21 2024.

 ----------------------------------------------------------------------
 #N Geom=AllCheck Guess=TCheck SCRF=Check GenChk RB3LYP/6-311+G(d,p) Fr
 eq
 ----------------------------------------------------------------------

 Structure from the checkpoint file:  "comp111.chk"
 -------------------
 Title Card Required
 -------------------
 Charge =  0 Multiplicity = 1

                         Standard orientation:
 ---------------------------------------------------------------------
 Center     Atomic      Atomic             Coordinates (Angstroms)
 Number     Number       Type             X           Y           Z
 ---------------------------------------------------------------------
      1          6           0        1.127162    0.078398    0.031159
      2          6           0        1.900465    1.221209    0.431013
      3          6           0        3.246253    1.017600    0.356575
      4         16           0        3.617865   -0.576609   -0.210409
      5          1           0        1.641983   -1.932364   -0.720693
      6          1           0        1.461566    2.144357    0.785715
      7          1           0        4.042398    1.698650    0.615162
      8          6           0       -0.349780    0.036718    0.020113
      9          6           0       -1.102442    1.174505   -0.303550
     10          6           0       -1.048349   -1.140134    0.324595
     11          6           0       -2.493197    1.133098   -0.324610
     12          1           0       -0.594589    2.095882   -0.565999
     13          6           0       -2.438664   -1.177253    0.297466
     14          1           0       -0.496754   -2.030797    0.604373
     15          6           0       -3.189911   -0.041695   -0.023663
     16          1           0       -3.046348    2.029156   -0.588595
     17          1           0       -2.949234   -2.104049    0.540191
     18          6           0       -4.698809   -0.074665   -0.014391
     19          1           0       -5.091877    0.182995    0.975489
     20          1           0       -5.117496    0.639714   -0.727276
     21          1           0       -5.077949   -1.067660   -0.267389
     22          6           0        1.937684   -0.966139   -0.342113
 ---------------------------------------------------------------------

 SCF Done:  E(RB3LYP) =  -823.512923726     A.U. after    2 cycles

 The electronic state is 1-A.
 Alpha  occ. eigenvalues --  -88.88008 -10.20254 -10.19961 -10.18989 -10.18899
 Alpha  occ. eigenvalues --  -10.18647 -10.18055 -10.17751 -10.17728 -10.17544
 Alpha  occ. eigenvalues --  -10.17539 -10.17141  -7.96624  -5.92905  -5.92530
 Alpha  occ. eigenvalues --   -5.92243  -0.89074  -0.86320  -0.79283  -0.75200
 Alpha  occ. eigenvalues --   -0.73960  -0.73186  -0.68253  -0.61664  -0.59810
 Alpha  occ. eigenvalues --   -0.56918  -0.55268  -0.53063  -0.47522  -0.46962
 Alpha  occ. eigenvalues --   -0.45454  -0.42683  -0.42528  -0.41577  -0.40613
 Alpha  occ. eigenvalues --   -0.39600  -0.39548  -0.38230  -0.36353  -0.35806
 Alpha  occ. eigenvalues --   -0.34359  -0.34260  -0.27736  -0.25969  -0.25076
 Alpha  occ. eigenvalues --   -0.22368
 Alpha virt. eigenvalues --   -0.03768  -0.01972  -0.01014  -0.00001   0.00748
 Alpha virt. eigenvalues --    0.01036   0.01812   0.02769   0.03610   0.04126
 Alpha virt. eigenvalues --    0.04265   0.04494   0.04971   0.05577   0.05757

 Mulliken charges:
               1
     1  C    0.170552
     2  C   -0.662023
     3  C   -0.151328
     4  S   -0.144547
     5  H    0.159499
     6  H    0.127017
     7  H    0.166841
     8  C    1.181100
     9  C   -0.378045
    10  C   -0.494045
    11  C   -0.762275
    12  H    0.120267
    13  C   -0.671378
    14  H    0.121319
    15  C    0.808772
    16  H    0.117633
    17  H    0.117721
    18  C   -0.534593
    19  H    0.167713
    20  H    0.140528
    21  H    0.141051
    22  C    0.258223
 Sum of Mulliken charges =   0.00000

 Dipole moment (field-independent basis, Debye):
    X=             -0.9181    Y=              0.2960    Z=              0.1434  Tot=              0.9753
 Quadrupole moment (field-independent basis, Debye-Ang):
   XX=            -71.8520   YY=            -71.5001   ZZ=            -83.2509
   XY=              2.1401   XZ=              0.7752   YZ=              0.6188

  Exact polarizability: 226.164  -3.001 137.744  -0.947  -0.328  88.798
 Approx polarizability: 315.723 -11.502 248.875  -3.197   1.238 142.475

 ESP charges:
               1
     1  C    0.094451
     2  C   -0.119918
     3  C   -0.180286
     4  S    0.009195
     5  H    0.165945
     6  H    0.097438
     7  H    0.161596
     8  C    0.037052
     9  C   -0.086399
    10  C   -0.107876
    11  C   -0.189220
    12  H    0.078379
    13  C   -0.185855
    14  H    0.079480
    15  C    0.164706
    16  H    0.109587
    17  H    0.113064
    18  C   -0.157772
    19  H    0.049102
    20  H    0.044264
    21  H    0.044207
    22  C   -0.221141
 Sum of ESP charges =   0.00000

 Summary of Natural Population Analysis:

                                       Natural Population
                Natural  -----------------------------------------------
    Atom  No    Charge         Core      Valence    Rydberg      Total
 -----------------------------------------------------------------------
      C    1   -0.09989      1.99895     4.08153    0.01940     6.09989
      C    2   -0.24077      1.99902     4.22430    0.01745     6.24077
      C    3   -0.38697      1.99911     4.36645    0.02142     6.38697
      S    4    0.42137      9.99894     5.53260    0.04708    15.57863
      H    5    0.23019      0.00000     0.76810    0.00172     0.76981
      H    6    0.22114      0.00000     0.77710    0.00175     0.77886
      H    7    0.22858      0.00000     0.76996    0.00146     0.77142
      C    8   -0.05941      1.99897     4.04287    0.01756     6.05941
      C    9   -0.18089      1.99908     4.16572    0.01610     6.18089
      C   10   -0.17940      1.99908     4.16385    0.01646     6.17940
      C   11   -0.19870      1.99905     4.18286    0.01678     6.19870
      H   12    0.20634      0.00000     0.79189    0.00177     0.79366
      C   13   -0.19864      1.99905     4.18277    0.01681     6.19864
      H   14    0.20658      0.00000     0.79159    0.00184     0.79342
      C   15   -0.03349      1.99904     4.01852    0.01592     6.03349
      H   16    0.20296      0.00000     0.79536    0.00168     0.79704
      H   17    0.20302      0.00000     0.79531    0.00167     0.79698
      C   18   -0.58985      1.99931     4.58060    0.00995     6.58985
      H   19    0.21320      0.00000     0.78535    0.00145     0.78680
      H   20    0.20776      0.00000     0.79087    0.00136     0.79224
      H   21    0.20763      0.00000     0.79101    0.00136     0.79237
      C   22   -0.38079      1.99898     4.36222    0.01959     6.38079
 =======================================================================
   * Total *    0.00000     31.98859    59.76084    0.25057    92.00000

                      1                      2                      3
                      A                      A                      A
 Frequencies --     36.3725                55.9906                69.2496
 Red. masses --      1.0552                 3.6244                 4.4578
 Frc consts  --      0.0008                 0.0067                 0.0126
 IR Inten    --      0.2131                 0.0648                 0.7339

                      4                      5                      6
                      A                      A                      A
 Frequencies --    109.5687               192.1403               286.5075
 Red. masses --      4.9209                 4.3963                 7.0760
 Frc consts  --      0.0348                 0.0956                 0.3422
 IR Inten    --      0.1752                 0.3080                 0.0681

                      7                      8                      9
                      A                      A                      A
 Frequencies --    311.2258               351.4278               416.0762
 Red. masses --      3.4501                 3.9818                 2.9984
 Frc consts  --      0.1969                 0.2897                 0.3058
 IR Inten    --      0.3717                 2.1250                 0.2103

                     10                     11                     12
                      A                      A                      A
 Frequencies --    420.3746               465.7213               524.0530
 Red. masses --      3.7258                 4.2943                 2.7252
 Frc consts  --      0.3879                 0.5488                 0.4410
 IR Inten    --      0.8955                 0.6438                16.4972

                     13                     14                     15
                      A                      A                      A
 Frequencies --    575.3608               640.0154               644.1206
 Red. masses --      6.3839                 3.1620                 6.6987
 Frc consts  --      1.2451                 0.7631                 1.6375
 IR Inten    --      3.1061                 7.6418                 0.2253

                     16                     17                     18
                      A                      A                      A
 Frequencies --    662.1555               684.9757               726.2315
 Red. masses --      4.1761                 1.2840                 2.8627
 Frc consts  --      1.0788                 0.3549                 0.8896
 IR Inten    --      6.5216                 2.7404                 3.6964

                     19                     20                     21
                      A                      A                      A
 Frequencies --    782.4863               787.4614               824.6670
 Red. masses --      1.4056                 4.9293                 5.3077
 Frc consts  --      0.5071                 1.8009                 2.1267
 IR Inten    --     91.7297                 1.9976                 3.0753

                     22                     23                     24
                      A                      A                      A
 Frequencies --    837.7252               848.0728               863.8591
 Red. masses --      1.7682                 1.2674                 3.7039
 Frc consts  --      0.7311                 0.5371                 1.6285
 IR Inten    --     31.1586                 0.4038                25.7630

                     25                     26                     27
                      A                      A                      A
 Frequencies --    895.9779               908.7334               964.2289
 Red. masses --      1.3233                 4.4572                 1.3104
 Frc consts  --      0.6259                 2.1686                 0.7178
 IR Inten    --      0.6412                 6.6960                 0.4668

                     28                     29                     30
                      A                      A                      A
 Frequencies --    980.9431              1005.8404              1033.6620
 Red. masses --      1.3612                 1.4122                 3.1055
 Frc consts  --      0.7717                 0.8418                 1.9550
 IR Inten    --      0.1392                 0.0052                 1.2790

                     31                     32                     33
                      A                      A                      A
 Frequencies --   1058.5673              1060.5490              1108.3944
 Red. masses --      1.9671                 1.6270                 1.1165
 Frc consts  --      1.2987                 1.0782                 0.8082
 IR Inten    --      5.1846                 7.8164                 5.0391

                     34                     35                     36
                      A                      A                      A
 Frequencies --   1140.2769              1209.4494              1216.5746
 Red. masses --      1.3305                 1.1377                 1.4927
 Frc consts  --      1.0192                 0.9805                 1.3017
 IR Inten    --      5.6628                 1.4680                 6.6031

                     37                     38                     39
                      A                      A                      A
 Frequencies --   1232.5306              1276.0875              1311.4126
 Red. masses --      2.8710                 2.2243                 4.1632
 Frc consts  --      2.5697                 2.1341                 4.2185
 IR Inten    --      2.3373                 1.1747                 0.8973

                     40                     41                     42
                      A                      A                      A
 Frequencies --   1336.8720              1389.9344              1414.2090
 Red. masses --      1.4931                 3.1022                 1.2479
 Frc consts  --      1.5722                 3.5310                 1.4704
 IR Inten    --      0.6942                 8.4285                 0.1126

                     43                     44                     45
                      A                      A                      A
 Frequencies --   1437.8380              1449.7565              1489.3178
 Red. masses --      2.9510                 4.2796                 1.0494
 Frc consts  --      3.5945                 5.2996                 1.3714
 IR Inten    --      2.1496                 3.9806                 7.1039

                     46                     47                     48
                      A                      A                      A
 Frequencies --   1493.3104              1539.8397              1573.1301
 Red. masses --      1.1271                 2.8156                 5.0062
 Frc consts  --      1.4809                 3.9334                 7.2995
 IR Inten    --      9.2469                32.6504                 6.6757

                     49                     50                     51
                      A                      A                      A
 Frequencies --   1604.4382              1652.7090              3019.3214
 Red. masses --      5.7638                 5.8494                 1.0409
 Frc consts  --      8.7419                 9.4136                 5.5909
 IR Inten    --      0.7294                 0.0769                38.2223

                     52                     53                     54
                      A                      A                      A
 Frequencies --   3073.1556              3099.8168              3154.6390
 Red. masses --      1.0941                 1.1023                 1.0878
 Frc consts  --      6.0879                 6.2403                 6.3784
 IR Inten    --     19.9190                16.2148                15.1643

                     55                     56                     57
                      A                      A                      A
 Frequencies --   3155.4041              3176.7793              3179.0917
 Red. masses --      1.0877                 1.0928                 1.0938
 Frc consts  --      6.3808                 6.4978                 6.5130
 IR Inten    --     18.0675                21.7199                 0.3578

                     58                     59                     60
                      A                      A                      A
 Frequencies --   3203.3499              3242.4163              3245.6982
 Red. masses --      1.0904                 1.0932                 1.0983
 Frc consts  --      6.5922                 6.7713                 6.8166
 IR Inten    --      2.0032                 0.9135                 0.7271

 - Thermochemistry -
 -------------------
 Temperature   298.150 Kelvin.  Pressure   1.00000 Atm.
 Atom     1 has atomic number  6 and mass  12.00000

 Molecular mass:   174.05032 amu.
 Principal axes and moments of inertia in atomic units:
                           1         2         3
     Eigenvalues --   579.468544799.073795266.32640
           X            0.99998   0.00642   0.00203
           Y           -0.00641   0.99997  -0.00454
           Z           -0.00206   0.00452   0.99999
 This molecule is an asymmetric top.
 Rotational symmetry number  1.
 Warning -- assumption of classical behavior for rotation
           may cause significant error
 Rotational temperatures (Kelvin)      0.14947     0.01805     0.01645
 Rotational constants (GHZ):           3.11448     0.37606     0.34269
 Zero-point vibrational energy     457273.1 (Joules/Mol)
                                  109.29090 (Kcal/Mol)
 Warning -- explicit consideration of  13 degrees of freedom as
           vibrations may cause significant error
 Vibrational temperatures:     52.33    80.56    99.63   157.64   276.45
          (Kelvin)            412.22   447.78   505.63   598.64   604.82
                              670.07   753.99   827.81   920.84   926.74
                              952.69   985.53  1044.88  1125.82  1132.98
                             1186.51  1205.30  1220.19  1242.90  1289.11
                             1307.46  1387.31  1411.36  1447.18  1487.21
                             1523.04  1525.89  1594.73  1640.60  1740.13
                             1750.38  1773.33  1836.00  1886.83  1923.46
                             1999.80  2034.73  2068.73  2085.87  2142.79
                             2148.54  2215.48  2263.38  2308.43  2377.88
                             4344.12  4421.58  4459.94  4538.82  4539.92
                             4570.67  4574.00  4608.90  4665.11  4669.83

 Zero-point correction=                           0.174166 (Hartree/Particle)
 Thermal correction to Energy=                    0.184740
 Thermal correction to Enthalpy=                  0.185684
 Thermal correction to Gibbs Free Energy=         0.136329
 Sum of electronic and zero-point Energies=           -823.338758
 Sum of electronic and thermal Energies=              -823.328184
 Sum of electronic and thermal Enthalpies=            -823.327240
 Sum of electronic and thermal Free Energies=         -823.376595

                     E (Thermal)             CV                S
                      KCal/Mol        Cal/Mol-Kelvin    Cal/Mol-Kelvin
 Total                  115.926             40.635            103.876
 Electronic               0.000              0.000              0.000
 Translational            0.889              2.981             41.370
 Rotational               0.889              2.981             31.061
 Vibrational            114.148             34.673             31.445
 Vibration     1          0.594              1.982              5.447
 Vibration     2          0.596              1.975              4.594
 Vibration     3          0.598              1.969              4.175
 Vibration     4          0.606              1.942              3.277
 Vibration     5          0.634              1.851              2.207
 Vibration     6          0.684              1.699              1.495
 Vibration     7          0.700              1.652              1.356
 Vibration     8          0.728              1.572              1.160
 Vibration     9          0.779              1.435              0.905
 Vibration    10          0.783              1.426              0.891
 Vibration    11          0.823              1.326              0.750
 Vibration    12          0.879              1.197              0.601
 Vibration    13          0.932              1.085              0.494

 Optimization completed.
    -- Stationary point found.
 Normal termination of Gaussian 09 at Fri Apr 26 11:27:20 2024.
