 Gaussian 09, Revision D.01,
 Gaussian 09:  ES64L-G09RevD.01 24-Apr-2013

 ----------------------------------------------------------------------
 # opt freq b3lyp/6-311+g(d,p) pop=(npa,hirshfeld,chelpg,mbs) geom=conn
 ectivity
 ----------------------------------------------------------------------

 -------------------
 Title Card Required
 -------------------
 Symbolic Z-matrix:
 Charge =  0 Multiplicity = 1

 SCF Done:  E(RB3LYP) =  -1683.10497742     A.U. after   17 cycles
 SCF Done:  E(RB3LYP) =  -1683.15120015     A.U. after   16 cycles
 SCF Done:  E(RB3LYP) =  -1683.17346379     A.U. after   15 cycles
 SCF Done:  E(RB3LYP) =  -1683.17598777     A.U. after   15 cycles
 SCF Done:  E(RB3LYP) =  -1683.17259695     A.U. after   15 cycles
 SCF Done:  E(RB3LYP) =  -1683.17789734     A.U. after   12 cycles
 SCF Done:  E(RB3LYP) =  -1683.17920193     A.U. after   14 cycles
 SCF Done:  E(RB3LYP) =  -1683.17940565     A.U. after   13 cycles
 SCF Done:  E(RB3LYP) =  -1683.17947893     A.U. after   14 cycles
 SCF Done:  E(RB3LYP) =  -1683.17952343     A.U. after   14 cycles
 SCF Done:  E(RB3LYP) =  -1683.17954094     A.U. after   12 cycles
 SCF Done:  E(RB3LYP) =  -1683.17954653     A.U. after   12 cycles
 SCF Done:  E(RB3LYP) =  -1683.17954869     A.U. after   12 cycles
 SCF Done:  E(RB3LYP) =  -1683.17954899     A.U. after   10 cycles
 Optimization completed.
    -- Stationary point found.
 Normal termination of Gaussian 09 at Mon Mar  7 12:16:27 2022.

 ----------------------------------------------------------------------
 #N Geom=AllCheck Guess=TCheck SCRF=Check GenChk RB3LYP/6-311+G(d,p) Fr
 eq
 ----------------------------------------------------------------------

 Structure from the checkpoint file:  "clopidogrel.chk"
 -------------------
 Title Card Required
 -------------------
 Charge =  0 Multiplicity = 1

                         Standard orientation:
 ---------------------------------------------------------------------
 Center     Atomic      Atomic             Coordinates (Angstroms)
 Number     Number       Type             X           Y           Z
 ---------------------------------------------------------------------
      1          6           0       -3.260074   -2.294864    1.763224
      2          6           0       -3.471162   -2.194174    0.393271
      3          6           0       -2.719725   -1.290427   -0.357558
      4          6           0       -1.748668   -0.474929    0.234238
      5          6           0       -1.558798   -0.596191    1.618096
      6          6           0       -2.298685   -1.493407    2.377888
      7          1           0       -3.844833   -2.998426    2.344593
      8          1           0       -4.211564   -2.809554   -0.101424
      9          1           0       -0.805037    0.028779    2.080212
     10          1           0       -2.126717   -1.567236    3.445422
     11         17           0       -3.041273   -1.227713   -2.090895
     12          6           0       -1.535607    1.931350   -0.308045
     13          8           0       -2.230232    2.497151   -1.114952
     14          8           0       -1.254145    2.422346    0.911527
     15          6           0       -1.862240    3.688315    1.235455
     16          1           0       -2.949335    3.605441    1.204608
     17          1           0       -1.522710    3.923113    2.241718
     18          1           0       -1.541601    4.457306    0.531272
     19          6           0        1.068880   -0.838555   -0.495243
     20          6           0        1.296156    1.547669   -0.806009
     21          1           0        0.884331   -1.101468   -1.555228
     22          1           0        0.560978   -1.593990    0.107920
     23          6           0        2.677596    1.644891   -0.145959
     24          1           0        1.413391    1.371049   -1.890158
     25          1           0        0.779108    2.500372   -0.686876
     26          6           0        3.272347    0.272303   -0.065725
     27          1           0        3.310033    2.321894   -0.729525
     28          1           0        2.573425    2.079379    0.854685
     29          7           0        0.500709    0.482472   -0.178416
     30          6           0        2.547995   -0.874701   -0.219377
     31          6           0        3.344364   -2.058094   -0.100874
     32          1           0        2.952234   -3.063499   -0.192393
     33          6           0        4.657895   -1.787915    0.145369
     34          1           0        5.472735   -2.482038    0.281735
     35         16           0        4.952510   -0.077453    0.236743
     36          6           0       -0.918934    0.542182   -0.548856
     37          1           0       -1.060944    0.365233   -1.622302
 ---------------------------------------------------------------------

 SCF Done:  E(RB3LYP) =  -1683.17954899     A.U. after    1 cycles

 The electronic state is 1-A.
 Alpha  occ. eigenvalues -- -101.55713 -88.87481 -19.18036 -19.12333 -14.32532
 Alpha  occ. eigenvalues --  -10.31245 -10.24877 -10.23474 -10.23227 -10.20874
 Alpha  occ. eigenvalues --  -10.20872 -10.20847 -10.20156 -10.19937 -10.19483
 Alpha  occ. eigenvalues --  -10.19370 -10.18985 -10.18922 -10.18860 -10.18137
 Alpha  occ. eigenvalues --  -10.17848  -9.47192  -7.96099  -7.23646  -7.22678
 Alpha  occ. eigenvalues --   -7.22637  -5.92389  -5.92021  -5.91693  -1.12245
 Alpha  occ. eigenvalues --   -1.03438  -0.95247  -0.90311  -0.88428  -0.84654
 Alpha  occ. eigenvalues --   -0.81011  -0.78204  -0.76455  -0.74904  -0.74501
 Alpha  occ. eigenvalues --   -0.72288  -0.70128  -0.65393  -0.62971  -0.61672
 Alpha  occ. eigenvalues --   -0.60801  -0.58034  -0.57153  -0.53486  -0.52470
 Alpha  occ. eigenvalues --   -0.52067  -0.50327  -0.50023  -0.49084  -0.48273
 Alpha  occ. eigenvalues --   -0.47652  -0.47092  -0.45976  -0.45572  -0.43930
 Alpha  occ. eigenvalues --   -0.43282  -0.43232  -0.42173  -0.41227  -0.40719
 Alpha  occ. eigenvalues --   -0.40150  -0.39417  -0.39325  -0.37833  -0.37205
 Alpha  occ. eigenvalues --   -0.36604  -0.36279  -0.35817  -0.35184  -0.34311
 Alpha  occ. eigenvalues --   -0.33714  -0.32245  -0.31939  -0.29690  -0.26852
 Alpha  occ. eigenvalues --   -0.25769  -0.25292  -0.23671  -0.23171
 Alpha virt. eigenvalues --   -0.04402  -0.03049  -0.02147  -0.00669  -0.00337
 Alpha virt. eigenvalues --    0.00345   0.00674   0.00727   0.01018   0.01913
 Alpha virt. eigenvalues --    0.02229   0.02426   0.03081   0.03251   0.03694

 Mulliken charges:
               1
     1  C   -0.153076
     2  C   -0.269725
     3  C    0.050468
     4  C    0.244836
     5  C   -0.275378
     6  C   -0.437513
     7  H    0.133565
     8  H    0.145581
     9  H    0.161927
    10  H    0.130589
    11  Cl   0.377815
    12  C   -0.848422
    13  O   -0.155148
    14  O   -0.047854
    15  C   -0.210193
    16  H    0.168954
    17  H    0.158822
    18  H    0.164351
    19  C   -0.835291
    20  C   -0.289121
    21  H    0.170428
    22  H    0.189850
    23  C   -0.076661
    24  H    0.142091
    25  H    0.177386
    26  C    0.591650
    27  H    0.165298
    28  H    0.178201
    29  N    0.458246
    30  C   -0.669290
    31  C    0.272028
    32  H    0.122230
    33  C   -0.311331
    34  H    0.159960
    35  S   -0.489799
    36  C    0.542131
    37  H    0.162396
 Sum of Mulliken charges =   0.00000

 Dipole moment (field-independent basis, Debye):
    X=              0.3136    Y=             -0.1406    Z=              2.6375  Tot=              2.6598
 Quadrupole moment (field-independent basis, Debye-Ang):
   XX=           -141.8606   YY=           -125.3394   ZZ=           -138.8957
   XY=              4.0146   XZ=            -10.1728   YZ=              3.1784

  Exact polarizability: 253.182  16.511 225.138   8.754  -5.845 201.704
 Approx polarizability: 349.494  39.004 348.619  30.558  -8.598 344.024

 ESP charges:
               1
     1  C   -0.135018
     2  C   -0.057528
     3  C    0.030865
     4  C    0.091383
     5  C   -0.062803
     6  C   -0.077794
     7  H    0.107942
     8  H    0.094150
     9  H    0.058244
    10  H    0.092181
    11  Cl  -0.141166
    12  C    0.689312
    13  O   -0.555804
    14  O   -0.311727
    15  C   -0.028838
    16  H    0.069652
    17  H    0.078640
    18  H    0.089024
    19  C    0.419889
    20  C   -0.102250
    21  H   -0.059694
    22  H   -0.041724
    23  C    0.126238
    24  H    0.043051
    25  H    0.112368
    26  C   -0.024753
    27  H    0.016163
    28  H    0.016136
    29  N   -0.521001
    30  C   -0.020724
    31  C   -0.177234
    32  H    0.107983
    33  C   -0.172020
    34  H    0.168432
    35  S   -0.047980
    36  C    0.032991
    37  H    0.093413
 Sum of ESP charges =   0.00000

 Summary of Natural Population Analysis:

                                       Natural Population
                Natural  -----------------------------------------------
    Atom  No    Charge         Core      Valence    Rydberg      Total
 -----------------------------------------------------------------------
      C    1   -0.18526      1.99915     4.16879    0.01733     6.18526
      C    2   -0.22154      1.99897     4.20341    0.01916     6.22154
      C    3   -0.02466      1.99844     4.00292    0.02330     6.02466
      C    4   -0.07765      1.99879     4.05415    0.02470     6.07765
      C    5   -0.17497      1.99903     4.15923    0.01671     6.17497
      C    6   -0.20310      1.99915     4.18649    0.01746     6.20310
      H    7    0.21140      0.00000     0.78717    0.00143     0.78860
      H    8    0.22423      0.00000     0.77412    0.00165     0.77577
      H    9    0.23359      0.00000     0.76369    0.00272     0.76641
      H   10    0.21082      0.00000     0.78776    0.00142     0.78918
     Cl   11    0.00670      9.99962     6.97564    0.01804    16.99330
      C   12    0.82020      1.99934     3.12923    0.05124     5.17980
      O   13   -0.58493      1.99973     6.57312    0.01208     8.58493
      O   14   -0.55474      1.99971     6.53722    0.01782     8.55474
      C   15   -0.21540      1.99924     4.20055    0.01560     6.21540
      H   16    0.18933      0.00000     0.80904    0.00163     0.81067
      H   17    0.18812      0.00000     0.81069    0.00119     0.81188
      H   18    0.18663      0.00000     0.81165    0.00172     0.81337
      C   19   -0.17772      1.99917     4.16103    0.01752     6.17772
      C   20   -0.15982      1.99926     4.14310    0.01746     6.15982
      H   21    0.18377      0.00000     0.81363    0.00260     0.81623
      H   22    0.21665      0.00000     0.78160    0.00175     0.78335
      C   23   -0.40768      1.99916     4.39179    0.01673     6.40768
      H   24    0.17505      0.00000     0.82246    0.00249     0.82495
      H   25    0.20256      0.00000     0.79579    0.00165     0.79744
      C   26   -0.19473      1.99877     4.17051    0.02544     6.19473
      H   27    0.21434      0.00000     0.78363    0.00204     0.78566
      H   28    0.21660      0.00000     0.78106    0.00233     0.78340
      N   29   -0.55348      1.99941     5.52647    0.02760     7.55348
      C   30   -0.09863      1.99881     4.08319    0.01663     6.09863
      C   31   -0.24427      1.99901     4.22708    0.01818     6.24427
      H   32    0.21853      0.00000     0.77981    0.00166     0.78147
      C   33   -0.38272      1.99911     4.36277    0.02083     6.38272
      H   34    0.22724      0.00000     0.77123    0.00152     0.77276
      S   35    0.41642      9.99885     5.54168    0.04304    15.58358
      C   36   -0.10377      1.99900     4.07439    0.03038     6.10377
      H   37    0.22288      0.00000     0.77409    0.00304     0.77712
 =======================================================================
   * Total *    0.00000     57.98174   109.52020    0.49807   168.00000

                      1                      2                      3
                      A                      A                      A
 Frequencies --     21.7136                35.8181                44.3276
 Red. masses --      9.0148                 5.1362                 5.6223
 Frc consts  --      0.0025                 0.0039                 0.0065
 IR Inten    --      0.0348                 0.6257                 0.2340

                      4                      5                      6
                      A                      A                      A
 Frequencies --     54.9318                62.4821                74.2412
 Red. masses --      5.1314                 5.4364                 3.9572
 Frc consts  --      0.0091                 0.0125                 0.0129
 IR Inten    --      1.1901                 0.2841                 0.1328

                      7                      8                      9
                      A                      A                      A
 Frequencies --    117.9076               130.6648               144.2234
 Red. masses --      4.2411                 1.1670                 4.3743
 Frc consts  --      0.0347                 0.0117                 0.0536
 IR Inten    --      0.7376                 0.3816                 1.1014

                     10                     11                     12
                      A                      A                      A
 Frequencies --    158.2193               182.9592               199.3395
 Red. masses --      4.2490                 6.3595                 4.3910
 Frc consts  --      0.0627                 0.1254                 0.1028
 IR Inten    --      0.7893                 0.5952                 3.0282

                     13                     14                     15
                      A                      A                      A
 Frequencies --    214.5466               244.6563               255.2581
 Red. masses --      4.2440                 4.0344                 5.9963
 Frc consts  --      0.1151                 0.1423                 0.2302
 IR Inten    --      0.7779                 2.3966                 1.6062

                     16                     17                     18
                      A                      A                      A
 Frequencies --    279.9401               302.0300               330.6388
 Red. masses --      2.3754                 4.3393                 6.0045
 Frc consts  --      0.1097                 0.2332                 0.3868
 IR Inten    --      5.5331                 4.4296                 4.5540

                     19                     20                     21
                      A                      A                      A
 Frequencies --    347.8285               399.0941               416.9494
 Red. masses --      3.7748                 3.4126                 4.6654
 Frc consts  --      0.2691                 0.3202                 0.4779
 IR Inten    --      2.3664                 9.4215                 0.7253

                     22                     23                     24
                      A                      A                      A
 Frequencies --    426.3598               456.0576               469.0658
 Red. masses --      7.7292                 3.8941                 3.5253
 Frc consts  --      0.8278                 0.4772                 0.4570
 IR Inten    --      5.6406                 2.0127                 5.1179

                     25                     26                     27
                      A                      A                      A
 Frequencies --    482.0242               520.4172               542.3601
 Red. masses --      4.9539                 5.0602                 5.1116
 Frc consts  --      0.6782                 0.8075                 0.8859
 IR Inten    --      3.3434                 1.5045                 1.9038

                     28                     29                     30
                      A                      A                      A
 Frequencies --    595.5802               598.6744               641.3047
 Red. masses --      4.2104                 3.6848                 4.3252
 Frc consts  --      0.8799                 0.7781                 1.0481
 IR Inten    --      7.1201                 5.0066                 5.1780

                     31                     32                     33
                      A                      A                      A
 Frequencies --    671.4438               696.2029               706.2821
 Red. masses --      4.4259                 5.5135                 1.4559
 Frc consts  --      1.1756                 1.5745                 0.4279
 IR Inten    --      4.1434                24.4198                34.5001

                     34                     35                     36
                      A                      A                      A
 Frequencies --    723.2822               731.0295               746.7813
 Red. masses --      4.2996                 4.0317                 5.7449
 Frc consts  --      1.3252                 1.2694                 1.8877
 IR Inten    --      4.6468                 0.8497                15.0021

                     37                     38                     39
                      A                      A                      A
 Frequencies --    763.4633               790.1896               828.7239
 Red. masses --      1.4580                 3.1682                 3.5116
 Frc consts  --      0.5007                 1.1655                 1.4209
 IR Inten    --     53.8193                 3.0118                 8.2506

                     40                     41                     42
                      A                      A                      A
 Frequencies --    840.0363               867.0181               884.1757
 Red. masses --      4.2468                 2.8431                 1.4531
 Frc consts  --      1.7657                 1.2592                 0.6693
 IR Inten    --     15.9686                 9.5285                 3.7104

                     43                     44                     45
                      A                      A                      A
 Frequencies --    884.2360               889.2213               919.4333
 Red. masses --      2.3873                 1.8109                 2.6196
 Frc consts  --      1.0998                 0.8436                 1.3047
 IR Inten    --      6.3444                10.3525                 9.3270

                     46                     47                     48
                      A                      A                      A
 Frequencies --    974.8224               991.6444              1000.9922
 Red. masses --      1.3812                 2.1299                 2.4589
 Frc consts  --      0.7733                 1.2340                 1.4516
 IR Inten    --      4.8818                11.5753                 3.9958

                     49                     50                     51
                      A                      A                      A
 Frequencies --   1004.1209              1024.9073              1038.2298
 Red. masses --      1.3761                 2.7269                 5.8295
 Frc consts  --      0.8175                 1.6877                 3.7023
 IR Inten    --      2.3207                15.3478                87.6701

                     52                     53                     54
                      A                      A                      A
 Frequencies --   1049.0558              1068.0404              1072.8778
 Red. masses --      5.5065                 2.2814                 2.1616
 Frc consts  --      3.5705                 1.5333                 1.4659
 IR Inten    --     33.6852                 7.6103                 3.8604

                     55                     56                     57
                      A                      A                      A
 Frequencies --   1098.1178              1123.6531              1145.0226
 Red. masses --      1.3144                 2.7492                 2.0419
 Frc consts  --      0.9338                 2.0452                 1.5773
 IR Inten    --     11.2283                28.0778                23.9529

                     58                     59                     60
                      A                      A                      A
 Frequencies --   1153.5947              1170.8344              1183.6177
 Red. masses --      3.5002                 1.2829                 1.1208
 Frc consts  --      2.7444                 1.0361                 0.9251
 IR Inten    --     39.1528                 1.0672                 0.9322

                     61                     62                     63
                      A                      A                      A
 Frequencies --   1189.3558              1204.0562              1205.8484
 Red. masses --      2.6832                 1.8346                 1.6531
 Frc consts  --      2.2363                 1.5670                 1.4162
 IR Inten    --     40.1815                 7.4466                10.2282

                     64                     65                     66
                      A                      A                      A
 Frequencies --   1221.3120              1237.7126              1243.0495
 Red. masses --      1.2242                 1.6003                 2.7269
 Frc consts  --      1.0759                 1.4444                 2.4825
 IR Inten    --      3.9496                 7.1352               178.1770

                     67                     68                     69
                      A                      A                      A
 Frequencies --   1266.0780              1286.3219              1305.4124
 Red. masses --      1.8036                 1.7598                 3.0437
 Frc consts  --      1.7034                 1.7156                 3.0560
 IR Inten    --     59.0162                24.4105                 3.4428

                     70                     71                     72
                      A                      A                      A
 Frequencies --   1311.3346              1342.3561              1357.2924
 Red. masses --      1.2836                 1.4794                 1.5999
 Frc consts  --      1.3005                 1.5706                 1.7366
 IR Inten    --     10.2038                38.7440                11.5463

                     73                     74                     75
                      A                      A                      A
 Frequencies --   1366.5340              1378.7255              1408.1090
 Red. masses --      1.4473                 1.4744                 1.7902
 Frc consts  --      1.5924                 1.6512                 2.0913
 IR Inten    --      4.4153                13.4738                 2.5660

                     76                     77                     78
                      A                      A                      A
 Frequencies --   1440.0805              1468.6844              1469.0830
 Red. masses --      2.0481                 2.0510                 1.2035
 Frc consts  --      2.5026                 2.6066                 1.5303
 IR Inten    --     11.3094                14.9882                 9.8591

                     79                     80                     81
                      A                      A                      A
 Frequencies --   1477.5649              1483.1888              1489.2998
 Red. masses --      1.2164                 1.0451                 2.7970
 Frc consts  --      1.5646                 1.3546                 3.6551
 IR Inten    --      7.9345                 9.8383                 4.9803

                     82                     83                     84
                      A                      A                      A
 Frequencies --   1493.3194              1497.4727              1500.8124
 Red. masses --      1.2241                 1.0614                 2.2470
 Frc consts  --      1.6083                 1.4023                 2.9819
 IR Inten    --      1.2220                 5.5998                34.2240

                     85                     86                     87
                      A                      A                      A
 Frequencies --   1506.7755              1607.7171              1611.1636
 Red. masses --      1.1255                 5.7406                 6.3629
 Frc consts  --      1.5055                 8.7423                 9.7316
 IR Inten    --      3.7769                 7.8777                 0.2941

                     88                     89                     90
                      A                      A                      A
 Frequencies --   1630.9837              1787.1069              2891.7864
 Red. masses --      5.9852                10.8550                 1.0739
 Frc consts  --      9.3805                20.4258                 5.2911
 IR Inten    --      1.9766               245.3405                44.7261

                     91                     92                     93
                      A                      A                      A
 Frequencies --   2926.5297              3013.1065              3019.5922
 Red. masses --      1.0736                 1.0825                 1.0609
 Frc consts  --      5.4176                 5.7901                 5.6993
 IR Inten    --     65.2728                13.0524                29.0417

                     94                     95                     96
                      A                      A                      A
 Frequencies --   3051.0031              3053.8898              3073.5508
 Red. masses --      1.0296                 1.1009                 1.0846
 Frc consts  --      5.6471                 6.0492                 6.0368
 IR Inten    --     35.8809                22.2806                13.4680

                     97                     98                     99
                      A                      A                      A
 Frequencies --   3094.9759              3124.2340              3158.1359
 Red. masses --      1.0877                 1.1071                 1.1064
 Frc consts  --      6.1386                 6.3667                 6.5015
 IR Inten    --     29.3218                17.1244                10.7484

                    100                    101                    102
                      A                      A                      A
 Frequencies --   3171.6862              3186.1451              3191.8053
 Red. masses --      1.0865                 1.0917                 1.0910
 Frc consts  --      6.4394                 6.5296                 6.5484
 IR Inten    --      2.2547                11.2404                 4.8265

                    103                    104                    105
                      A                      A                      A
 Frequencies --   3201.1164              3204.1254              3245.1615
 Red. masses --      1.0927                 1.0956                 1.0971
 Frc consts  --      6.5973                 6.6271                 6.8072
 IR Inten    --      2.0083                 5.2210                 0.4271

 - Thermochemistry -
 -------------------
 Temperature   298.150 Kelvin.  Pressure   1.00000 Atm.
 Atom     1 has atomic number  6 and mass  12.00000

 Molecular mass:   321.05903 amu.
 Principal axes and moments of inertia in atomic units:
                           1         2         3
     Eigenvalues --  4688.62716********************
           X            0.99988  -0.00496  -0.01498
           Y            0.00490   0.99998  -0.00427
           Z            0.01500   0.00420   0.99988
 This molecule is an asymmetric top.
 Rotational symmetry number  1.
 Warning -- assumption of classical behavior for rotation
           may cause significant error
 Rotational temperatures (Kelvin)      0.01847     0.00802     0.00687
 Rotational constants (GHZ):           0.38492     0.16718     0.14313
 Zero-point vibrational energy     760730.8 (Joules/Mol)
                                  181.81903 (Kcal/Mol)
 Warning -- explicit consideration of  29 degrees of freedom as
           vibrations may cause significant error
 Vibrational temperatures:     31.24    51.53    63.78    79.03    89.90
          (Kelvin)            106.82   169.64   188.00   207.51   227.64
                              263.24   286.80   308.68   352.01   367.26
                              402.77   434.55   475.71   500.45   574.21
                              599.90   613.44   656.16   674.88   693.52
                              748.76   780.33   856.91   861.36   922.69
                              966.06  1001.68  1016.18  1040.64  1051.79
                             1074.45  1098.45  1136.91  1192.35  1208.62
                             1247.44  1272.13  1272.22  1279.39  1322.86
                             1402.55  1426.75  1440.20  1444.70  1474.61
                             1493.78  1509.36  1536.67  1543.63  1579.94
                             1616.68  1647.43  1659.76  1684.57  1702.96
                             1711.22  1732.37  1734.94  1757.19  1780.79
                             1788.47  1821.60  1850.73  1878.19  1886.72
                             1931.35  1952.84  1966.14  1983.68  2025.95
                             2071.95  2113.11  2113.68  2125.88  2133.98
                             2142.77  2148.55  2154.53  2159.33  2167.91
                             2313.14  2318.10  2346.62  2571.24  4160.63
                             4210.62  4335.18  4344.51  4389.71  4393.86
                             4422.15  4452.97  4495.07  4543.85  4563.34
                             4584.15  4592.29  4605.69  4610.02  4669.06

 Zero-point correction=                           0.289747 (Hartree/Particle)
 Thermal correction to Energy=                    0.308951
 Thermal correction to Enthalpy=                  0.309896
 Thermal correction to Gibbs Free Energy=         0.239989
 Sum of electronic and zero-point Energies=          -1682.889802
 Sum of electronic and thermal Energies=             -1682.870598
 Sum of electronic and thermal Enthalpies=           -1682.869653
 Sum of electronic and thermal Free Energies=        -1682.939560

                     E (Thermal)             CV                S
                      KCal/Mol        Cal/Mol-Kelvin    Cal/Mol-Kelvin
 Total                  193.870             72.718            147.132
 Electronic               0.000              0.000              0.000
 Translational            0.889              2.981             43.195
 Rotational               0.889              2.981             34.811
 Vibrational            192.092             66.756             69.126
 Vibration     1          0.593              1.985              6.471
 Vibration     2          0.594              1.982              5.478
 Vibration     3          0.595              1.980              5.056
 Vibration     4          0.596              1.976              4.631
 Vibration     5          0.597              1.972              4.377
 Vibration     6          0.599              1.966              4.038
 Vibration     7          0.608              1.934              3.134
 Vibration     8          0.612              1.923              2.936
 Vibration     9          0.616              1.909              2.747
 Vibration    10          0.621              1.893              2.571
 Vibration    11          0.630              1.863              2.298
 Vibration    12          0.637              1.841              2.139
 Vibration    13          0.644              1.819              2.005
 Vibration    14          0.660              1.772              1.769
 Vibration    15          0.666              1.754              1.694
 Vibration    16          0.680              1.711              1.534
 Vibration    17          0.694              1.670              1.406
 Vibration    18          0.713              1.614              1.257
 Vibration    19          0.725              1.580              1.176
 Vibration    20          0.765              1.472              0.966
 Vibration    21          0.780              1.433              0.902
 Vibration    22          0.788              1.413              0.871
 Vibration    23          0.814              1.347              0.778
 Vibration    24          0.826              1.319              0.740
 Vibration    25          0.838              1.290              0.705
 Vibration    26          0.875              1.205              0.609
 Vibration    27          0.897              1.156              0.560
 Vibration    28          0.953              1.041              0.457
 Vibration    29          0.957              1.035              0.452

 Normal termination of Gaussian 09 at Mon Mar  7 13:03:12 2022.
