 Gaussian 09, Revision D.01,
 Gaussian 09:  ES64L-G09RevD.01 24-Apr-2013

 ----------------------------------------------------------------------
 # opt freq b3lyp/6-311+g(d,p) geom=connectivity pop=(hirshfeld,chelpg,
 mbs,npa)
 ----------------------------------------------------------------------

 -------------------
 Title Card Required
 -------------------
 Symbolic Z-matrix:
 Charge =  0 Multiplicity = 1

 SCF Done:  E(RB3LYP) =  -773.202413237     A.U. after   15 cycles
 SCF Done:  E(RB3LYP) =  -773.209953768     A.U. after   12 cycles
 SCF Done:  E(RB3LYP) =  -773.210636564     A.U. after   11 cycles
 SCF Done:  E(RB3LYP) =  -773.210727692     A.U. after   10 cycles
 SCF Done:  E(RB3LYP) =  -773.210739589     A.U. after   11 cycles
 SCF Done:  E(RB3LYP) =  -773.210788062     A.U. after   11 cycles
 SCF Done:  E(RB3LYP) =  -773.150763478     A.U. after   15 cycles
 SCF Done:  E(RB3LYP) =  -773.210838124     A.U. after    9 cycles
 SCF Done:  E(RB3LYP) =  -773.209389412     A.U. after   14 cycles
 SCF Done:  E(RB3LYP) =  -773.210867870     A.U. after   10 cycles
 SCF Done:  E(RB3LYP) =  -773.211201777     A.U. after   13 cycles
 SCF Done:  E(RB3LYP) =  -773.189131892     A.U. after   14 cycles
 SCF Done:  E(RB3LYP) =  -773.211253775     A.U. after    9 cycles
 SCF Done:  E(RB3LYP) =  -773.211442438     A.U. after   11 cycles
 SCF Done:  E(RB3LYP) =  -773.211450181     A.U. after   11 cycles
 SCF Done:  E(RB3LYP) =  -773.211553348     A.U. after   11 cycles
 SCF Done:  E(RB3LYP) =  -773.211554546     A.U. after    9 cycles
 SCF Done:  E(RB3LYP) =  -773.211554736     A.U. after    8 cycles
 SCF Done:  E(RB3LYP) =  -773.211554768     A.U. after    7 cycles
 Optimization completed.
    -- Stationary point found.
 Normal termination of Gaussian 09 at Mon Jan  9 18:25:24 2023.

 ----------------------------------------------------------------------
 #N Geom=AllCheck Guess=TCheck SCRF=Check GenChk RB3LYP/6-311+G(d,p) Fr
 eq
 ----------------------------------------------------------------------

 Structure from the checkpoint file:  "pyrene2_Marder.chk"
 -------------------
 Title Card Required
 -------------------
 Charge =  0 Multiplicity = 1

                         Standard orientation:
 ---------------------------------------------------------------------
 Center     Atomic      Atomic             Coordinates (Angstroms)
 Number     Number       Type             X           Y           Z
 ---------------------------------------------------------------------
      1          6           0       -2.251669    0.033066    0.000038
      2          6           0       -1.522825    1.224665    0.000051
      3          6           0       -0.118533    1.241678    0.000043
      4          6           0        0.592639    0.010945    0.000028
      5          6           0       -0.136881   -1.212231    0.000038
      6          6           0       -1.535517   -1.172136    0.000038
      7          6           0        0.634176    2.465495    0.000035
      8          6           0        2.016560    0.000712    0.000003
      9          6           0        2.737823    1.230722   -0.000009
     10          6           0        1.994334    2.459957    0.000006
     11          6           0        4.140600    1.195386   -0.000030
     12          1           0        4.694072    2.128563   -0.000042
     13          6           0        4.820920   -0.018715   -0.000038
     14          6           0        4.122606   -1.224002   -0.000025
     15          6           0        2.720738   -1.239416   -0.000005
     16          6           0        1.959534   -2.459331    0.000011
     17          6           0        0.600443   -2.447163    0.000035
     18          1           0        0.045379   -3.379709    0.000049
     19          1           0        2.497833   -3.401556    0.000003
     20          1           0        0.091751    3.405443    0.000047
     21          1           0       -2.036002    2.177880    0.000102
     22          1           0       -2.067730   -2.117223    0.000043
     23          1           0        2.544949    3.395031   -0.000008
     24          1           0        5.905186   -0.026731   -0.000051
     25          1           0        4.663136   -2.164746   -0.000030
     26          6           0       -3.792000    0.003439   -0.000022
     27          6           0       -4.292499   -0.737012   -1.262207
     28          1           0       -3.931252   -1.767173   -1.300213
     29          1           0       -5.386489   -0.766730   -1.275748
     30          1           0       -3.954911   -0.230961   -2.170858
     31          6           0       -4.292637   -0.737088    1.262086
     32          1           0       -3.955025   -0.231163    2.170793
     33          1           0       -5.386629   -0.766665    1.275541
     34          1           0       -3.931507   -1.767290    1.299990
     35          6           0       -4.407395    1.414989   -0.000007
     36          1           0       -4.118741    1.986370    0.886494
     37          1           0       -4.118649    1.986411   -0.886457
     38          1           0       -5.497882    1.336487   -0.000074
 ---------------------------------------------------------------------

 SCF Done:  E(RB3LYP) =  -773.211554768     A.U. after    1 cycles

 The electronic state is 1-A.
 Alpha  occ. eigenvalues --  -10.19595 -10.18850 -10.18840 -10.18785 -10.18741
 Alpha  occ. eigenvalues --  -10.18713 -10.18605 -10.18496 -10.18096 -10.18069
 Alpha  occ. eigenvalues --  -10.18026 -10.17999 -10.17938 -10.17885 -10.17856
 Alpha  occ. eigenvalues --  -10.17601 -10.17546 -10.16241 -10.16200 -10.16199
 Alpha  occ. eigenvalues --   -0.89881  -0.86183  -0.83581  -0.82991  -0.78948
 Alpha  occ. eigenvalues --   -0.77137  -0.75268  -0.73005  -0.71704  -0.69073
 Alpha  occ. eigenvalues --   -0.69044  -0.63704  -0.63141  -0.62878  -0.61394
 Alpha  occ. eigenvalues --   -0.57449  -0.53384  -0.52235  -0.52068  -0.51146
 Alpha  occ. eigenvalues --   -0.49366  -0.48138  -0.45419  -0.45010  -0.44589
 Alpha  occ. eigenvalues --   -0.43927  -0.43141  -0.42726  -0.41760  -0.40753
 Alpha  occ. eigenvalues --   -0.40350  -0.39879  -0.39639  -0.39133  -0.38184
 Alpha  occ. eigenvalues --   -0.37354  -0.37188  -0.36487  -0.35002  -0.34828
 Alpha  occ. eigenvalues --   -0.34008  -0.33504  -0.32538  -0.32014  -0.29719
 Alpha  occ. eigenvalues --   -0.28020  -0.26239  -0.23360  -0.20561
 Alpha virt. eigenvalues --   -0.06571  -0.03496  -0.01889  -0.00258  -0.00029
 Alpha virt. eigenvalues --    0.00694   0.01062   0.01985   0.02357   0.02810
 Alpha virt. eigenvalues --    0.03337   0.03653   0.03980   0.04020   0.05004

 Mulliken charges:
               1
     1  C    0.384763
     2  C   -0.237821
     3  C    0.274384
     4  C   -0.150132
     5  C    0.324470
     6  C   -0.223866
     7  C   -0.274209
     8  C   -0.082865
     9  C    0.298994
    10  C   -0.254769
    11  C   -0.184128
    12  H    0.116946
    13  C   -0.354341
    14  C   -0.198657
    15  C    0.371052
    16  C   -0.345431
    17  C   -0.424883
    18  H    0.113669
    19  H    0.115776
    20  H    0.113289
    21  H    0.115194
    22  H    0.097079
    23  H    0.115453
    24  H    0.123927
    25  H    0.116378
    26  C    0.413787
    27  C   -0.567690
    28  H    0.138083
    29  H    0.138642
    30  H    0.143091
    31  C   -0.567661
    32  H    0.143095
    33  H    0.138644
    34  H    0.138080
    35  C   -0.500578
    36  H    0.141305
    37  H    0.141302
    38  H    0.149634
 Sum of Mulliken charges =   0.00000

 Dipole moment (field-independent basis, Debye):
    X=             -0.6523    Y=             -0.0064    Z=              0.0000  Tot=              0.6524
 Quadrupole moment (field-independent basis, Debye-Ang):
   XX=           -107.2651   YY=           -108.9587   ZZ=           -126.4936
   XY=             -0.0287   XZ=             -0.0001   YZ=              0.0001

  Exact polarizability: 383.653   0.576 244.468  -0.002   0.000 131.867
 Approx polarizability: 637.850   1.919 440.634  -0.005   0.000 210.614

 ESP charges:
               1
     1  C    0.113636
     2  C   -0.322857
     3  C    0.192990
     4  C   -0.065983
     5  C    0.200024
     6  C   -0.352643
     7  C   -0.185612
     8  C   -0.016058
     9  C    0.163183
    10  C   -0.173993
    11  C   -0.248698
    12  H    0.118308
    13  C    0.011356
    14  C   -0.257763
    15  C    0.176584
    16  C   -0.179054
    17  C   -0.176739
    18  H    0.101383
    19  H    0.109977
    20  H    0.110016
    21  H    0.137308
    22  H    0.168201
    23  H    0.110424
    24  H    0.070715
    25  H    0.120907
    26  C    0.416815
    27  C   -0.174143
    28  H    0.014538
    29  H    0.039322
    30  H    0.006642
    31  C   -0.174222
    32  H    0.006642
    33  H    0.039364
    34  H    0.014545
    35  C   -0.262223
    36  H    0.047598
    37  H    0.047585
    38  H    0.051926
 Sum of ESP charges =   0.00000

 Summary of Natural Population Analysis:

                                       Natural Population
                Natural  -----------------------------------------------
    Atom  No    Charge         Core      Valence    Rydberg      Total
 -----------------------------------------------------------------------
      C    1   -0.06067      1.99909     4.02606    0.03552     6.06067
      C    2   -0.15339      1.99901     4.14237    0.01202     6.15339
      C    3   -0.10296      1.99920     4.07370    0.03006     6.10296
      C    4    0.10914      1.99878     3.87129    0.02079     5.89086
      C    5   -0.09603      1.99915     4.06919    0.02768     6.09603
      C    6   -0.17473      1.99890     4.15907    0.01675     6.17473
      C    7   -0.16185      1.99891     4.14394    0.01900     6.16185
      C    8   -0.05494      1.99900     4.02926    0.02668     6.05494
      C    9   -0.05703      1.99899     4.04093    0.01712     6.05703
      C   10   -0.18350      1.99912     4.16502    0.01936     6.18350
      C   11   -0.18097      1.99909     4.16464    0.01724     6.18097
      H   12    0.20482      0.00000     0.79349    0.00169     0.79518
      C   13   -0.20121      1.99917     4.18383    0.01822     6.20121
      C   14   -0.18132      1.99909     4.16498    0.01725     6.18132
      C   15   -0.05704      1.99898     4.04084    0.01721     6.05704
      C   16   -0.18260      1.99911     4.16419    0.01930     6.18260
      C   17   -0.16009      1.99891     4.14404    0.01714     6.16009
      H   18    0.20369      0.00000     0.79433    0.00199     0.79631
      H   19    0.20562      0.00000     0.79252    0.00185     0.79438
      H   20    0.20373      0.00000     0.79412    0.00215     0.79627
      H   21    0.20649      0.00000     0.79189    0.00163     0.79351
      H   22    0.19962      0.00000     0.79703    0.00334     0.80038
      H   23    0.20557      0.00000     0.79255    0.00188     0.79443
      H   24    0.20706      0.00000     0.79143    0.00151     0.79294
      H   25    0.20481      0.00000     0.79351    0.00168     0.79519
      C   26    0.01689      1.99915     3.95767    0.02629     5.98311
      C   27   -0.58484      1.99935     4.56339    0.02209     6.58484
      H   28    0.19918      0.00000     0.79893    0.00189     0.80082
      H   29    0.19782      0.00000     0.79989    0.00229     0.80218
      H   30    0.20495      0.00000     0.79348    0.00156     0.79505
      C   31   -0.58483      1.99935     4.56339    0.02209     6.58483
      H   32    0.20496      0.00000     0.79348    0.00156     0.79504
      H   33    0.19782      0.00000     0.79989    0.00230     0.80218
      H   34    0.19917      0.00000     0.79893    0.00189     0.80083
      C   35   -0.57954      1.99936     4.56334    0.01684     6.57954
      H   36    0.20006      0.00000     0.79785    0.00209     0.79994
      H   37    0.20006      0.00000     0.79785    0.00209     0.79994
      H   38    0.20118      0.00000     0.79655    0.00227     0.79882
 =======================================================================
   * Total *    0.01509     39.98172    97.54886    0.45433   137.98491

                      1                      2                      3
                      A                      A                      A
 Frequencies --     31.6624                50.6201               128.3243
 Red. masses --      2.9538                 4.3168                 3.7650
 Frc consts  --      0.0017                 0.0065                 0.0365
 IR Inten    --      0.0090                 0.3989                 0.0174

                      4                      5                      6
                      A                      A                      A
 Frequencies --    147.0813               154.2024               210.6209
 Red. masses --      3.6964                 4.1274                 3.5420
 Frc consts  --      0.0471                 0.0578                 0.0926
 IR Inten    --      0.2657                 0.0047                 7.5347

                      7                      8                      9
                      A                      A                      A
 Frequencies --    219.9256               247.8044               248.3045
 Red. masses --      1.1920                 3.3601                 3.2907
 Frc consts  --      0.0340                 0.1216                 0.1195
 IR Inten    --      0.7696                 0.0336                 0.0288

                     10                     11                     12
                      A                      A                      A
 Frequencies --    261.1532               263.6755               303.4030
 Red. masses --      1.1345                 2.8743                 2.5039
 Frc consts  --      0.0456                 0.1177                 0.1358
 IR Inten    --      0.0632                 0.1115                 0.1980

                     13                     14                     15
                      A                      A                      A
 Frequencies --    328.8817               357.7387               375.2119
 Red. masses --      1.0549                 2.6766                 3.0150
 Frc consts  --      0.0672                 0.2018                 0.2501
 IR Inten    --      0.0110                 0.0871                 0.6111

                     16                     17                     18
                      A                      A                      A
 Frequencies --    402.2171               421.1134               445.0596
 Red. masses --      3.4809                 3.0506                 4.1067
 Frc consts  --      0.3318                 0.3187                 0.4793
 IR Inten    --      0.0006                 0.3673                 0.8738

                     19                     20                     21
                      A                      A                      A
 Frequencies --    449.6252               476.1607               504.3848
 Red. masses --      3.4972                 7.1988                 3.8894
 Frc consts  --      0.4166                 0.9617                 0.5830
 IR Inten    --      0.1131                 0.0217                 0.2722

                     22                     23                     24
                      A                      A                      A
 Frequencies --    508.8159               532.9776               534.4398
 Red. masses --      4.9861                 4.1546                 2.9864
 Frc consts  --      0.7606                 0.6953                 0.5026
 IR Inten    --      3.8949                 0.4906                 0.0040

                     25                     26                     27
                      A                      A                      A
 Frequencies --    544.6472               557.9192               571.0449
 Red. masses --      3.7004                 3.3923                 6.6551
 Frc consts  --      0.6467                 0.6221                 1.2786
 IR Inten    --      0.2782                 0.0990                 2.3660

                     28                     29                     30
                      A                      A                      A
 Frequencies --    611.2983               656.4525               682.3241
 Red. masses --      5.7564                 3.2758                 4.2708
 Frc consts  --      1.2674                 0.8317                 1.1715
 IR Inten    --      0.0020                 0.0025                 0.0092

                     31                     32                     33
                      A                      A                      A
 Frequencies --    721.2723               748.9798               757.0734
 Red. masses --      2.7936                 5.9805                 1.8754
 Frc consts  --      0.8563                 1.9766                 0.6333
 IR Inten    --     39.3980                 0.5257                 4.0507

                     34                     35                     36
                      A                      A                      A
 Frequencies --    774.1774               778.5303               811.0090
 Red. masses --      5.4402                 2.1891                 3.4615
 Frc consts  --      1.9211                 0.7818                 1.3414
 IR Inten    --      0.0039                 0.8288                 0.5828

                     37                     38                     39
                      A                      A                      A
 Frequencies --    811.6617               831.6503               838.8527
 Red. masses --      1.3749                 4.6036                 1.6904
 Frc consts  --      0.5337                 1.8760                 0.7008
 IR Inten    --      0.0071                 6.2337                56.4560

                     40                     41                     42
                      A                      A                      A
 Frequencies --    896.7174               903.0434               916.5904
 Red. masses --      1.7059                 1.4095                 1.4631
 Frc consts  --      0.8082                 0.6772                 0.7242
 IR Inten    --     41.4318                 1.0614                 0.0288

                     43                     44                     45
                      A                      A                      A
 Frequencies --    927.4631               927.6216               938.5960
 Red. masses --      2.9000                 1.7226                 1.9068
 Frc consts  --      1.4697                 0.8733                 0.9897
 IR Inten    --      5.6613                 3.1637                 3.4689

                     46                     47                     48
                      A                      A                      A
 Frequencies --    958.5076               979.2846               983.0217
 Red. masses --      1.1991                 1.2966                 1.3105
 Frc consts  --      0.6491                 0.7326                 0.7461
 IR Inten    --      0.1024                 0.3004                 0.0013

                     49                     50                     51
                      A                      A                      A
 Frequencies --    989.9549               994.3970              1014.4994
 Red. masses --      1.3200                 4.5873                 7.4625
 Frc consts  --      0.7622                 2.6725                 4.5252
 IR Inten    --      0.1683                 0.0278                 3.5985

                     52                     53                     54
                      A                      A                      A
 Frequencies --   1042.2873              1046.4767              1097.1132
 Red. masses --      1.4263                 1.3950                 1.9638
 Frc consts  --      0.9129                 0.9001                 1.3927
 IR Inten    --      1.3372                 0.0293                 5.0826

                     55                     56                     57
                      A                      A                      A
 Frequencies --   1132.1869              1142.2988              1170.2646
 Red. masses --      2.3854                 1.6504                 1.3343
 Frc consts  --      1.8015                 1.2688                 1.0766
 IR Inten    --      0.0524                 0.1677                 2.5832

                     58                     59                     60
                      A                      A                      A
 Frequencies --   1171.9768              1201.8621              1222.1287
 Red. masses --      1.3214                 1.2543                 2.7590
 Frc consts  --      1.0694                 1.0675                 2.4279
 IR Inten    --      2.3150                 8.1176                 3.9105

                     61                     62                     63
                      A                      A                      A
 Frequencies --   1224.9810              1231.0181              1248.1207
 Red. masses --      2.4681                 2.1558                 2.1221
 Frc consts  --      2.1821                 1.9248                 1.9477
 IR Inten    --      7.0278                 0.3725                43.2153

                     64                     65                     66
                      A                      A                      A
 Frequencies --   1264.3948              1270.4148              1305.6194
 Red. masses --      2.1224                 1.5310                 3.1275
 Frc consts  --      1.9991                 1.4558                 3.1411
 IR Inten    --      2.2021                 0.3597                 4.9332

                     67                     68                     69
                      A                      A                      A
 Frequencies --   1340.9916              1354.7023              1392.0333
 Red. masses --      3.9486                 3.0953                 1.4093
 Frc consts  --      4.1836                 3.3469                 1.6090
 IR Inten    --      2.3857                 0.0038                 4.8114

                     70                     71                     72
                      A                      A                      A
 Frequencies --   1397.6483              1399.0190              1408.9984
 Red. masses --      1.2064                 8.0164                 1.7177
 Frc consts  --      1.3885                 9.2444                 2.0092
 IR Inten    --      8.6594                 0.0625                 8.2720

                     73                     74                     75
                      A                      A                      A
 Frequencies --   1429.6758              1432.8999              1447.6087
 Red. masses --      1.4285                 3.4521                 2.0728
 Frc consts  --      1.7203                 4.1760                 2.5592
 IR Inten    --      7.5683                 0.1274                 4.1839

                     76                     77                     78
                      A                      A                      A
 Frequencies --   1468.3071              1481.7682              1483.4631
 Red. masses --      2.4604                 1.0488                 3.7240
 Frc consts  --      3.1252                 1.3568                 4.8284
 IR Inten    --     11.6075                 0.0138                 0.3455

                     79                     80                     81
                      A                      A                      A
 Frequencies --   1486.8064              1490.4217              1492.2205
 Red. masses --      1.0450                 3.8227                 1.0962
 Frc consts  --      1.3610                 5.0030                 1.4382
 IR Inten    --      0.0693                 2.1922                 1.6605

                     82                     83                     84
                      A                      A                      A
 Frequencies --   1505.3345              1508.4721              1522.3836
 Red. masses --      1.1353                 1.0502                 1.1043
 Frc consts  --      1.5157                 1.4080                 1.5079
 IR Inten    --      7.8086                 8.1028                15.3815

                     85                     86                     87
                      A                      A                      A
 Frequencies --   1524.9961              1597.4001              1620.2603
 Red. masses --      3.0227                 4.2557                 7.6733
 Frc consts  --      4.1417                 6.3981                11.8687
 IR Inten    --      1.3433                 4.7169                 0.1223

                     88                     89                     90
                      A                      A                      A
 Frequencies --   1636.4302              1637.5444              1667.8314
 Red. masses --      5.6693                 6.1178                 7.1128
 Frc consts  --      8.9449                 9.6656                11.6571
 IR Inten    --     32.8181                 4.9588                 2.7249

                     91                     92                     93
                      A                      A                      A
 Frequencies --   3019.7636              3020.5860              3028.4267
 Red. masses --      1.0350                 1.0347                 1.0360
 Frc consts  --      5.5610                 5.5621                 5.5982
 IR Inten    --     28.0757                27.4463                36.7386

                     94                     95                     96
                      A                      A                      A
 Frequencies --   3081.9853              3083.0162              3089.6260
 Red. masses --      1.1015                 1.1017                 1.1025
 Frc consts  --      6.1643                 6.1697                 6.2009
 IR Inten    --      4.1571                 8.7306                16.9551

                     97                     98                     99
                      A                      A                      A
 Frequencies --   3091.4472              3094.9963              3097.5566
 Red. masses --      1.1007                 1.1019                 1.1012
 Frc consts  --      6.1981                 6.2187                 6.2253
 IR Inten    --    118.2412                22.8330                41.6199

                    100                    101                    102
                      A                      A                      A
 Frequencies --   3154.9656              3155.1881              3159.3241
 Red. masses --      1.0861                 1.0861                 1.0860
 Frc consts  --      6.3693                 6.3702                 6.3867
 IR Inten    --      0.9234                 1.4161                 0.0188

                    103                    104                    105
                      A                      A                      A
 Frequencies --   3166.1658              3167.1923              3173.9431
 Red. masses --      1.0894                 1.0904                 1.0956
 Frc consts  --      6.4342                 6.4442                 6.5029
 IR Inten    --     12.4487                 3.5889                40.1604

                    106                    107                    108
                      A                      A                      A
 Frequencies --   3174.3257              3184.1456              3191.5685
 Red. masses --      1.0954                 1.0961                 1.0886
 Frc consts  --      6.5032                 6.5479                 6.5333
 IR Inten    --     22.2891                31.8731                 7.5271

 - Thermochemistry -
 -------------------
 Temperature   298.150 Kelvin.  Pressure   1.00000 Atm.
 Atom     1 has atomic number  6 and mass  12.00000

 Molecular mass:   258.14085 amu.
 Principal axes and moments of inertia in atomic units:
                           1         2         3
     Eigenvalues --  2170.670388316.22649**********
           X            1.00000   0.00016   0.00000
           Y           -0.00016   1.00000   0.00000
           Z            0.00000   0.00000   1.00000
 This molecule is an asymmetric top.
 Rotational symmetry number  1.
 Warning -- assumption of classical behavior for rotation
           may cause significant error
 Rotational temperatures (Kelvin)      0.03990     0.01042     0.00859
 Rotational constants (GHZ):           0.83142     0.21701     0.17892
 Zero-point vibrational energy     833573.3 (Joules/Mol)
                                  199.22881 (Kcal/Mol)
 Warning -- explicit consideration of  28 degrees of freedom as
           vibrations may cause significant error
 Vibrational temperatures:     45.56    72.83   184.63   211.62   221.86
          (Kelvin)            303.04   316.42   356.53   357.25   375.74
                              379.37   436.53   473.19   514.71   539.85
                              578.70   605.89   640.34   646.91   685.09
                              725.70   732.07   766.83   768.94   783.62
                              802.72   821.61   879.52   944.49   981.71
                             1037.75  1077.61  1089.26  1113.87  1120.13
                             1166.86  1167.80  1196.56  1206.92  1290.17
                             1299.28  1318.77  1334.41  1334.64  1350.43
                             1379.08  1408.97  1414.35  1424.32  1430.71
                             1459.64  1499.62  1505.64  1578.50  1628.96
                             1643.51  1683.75  1686.21  1729.21  1758.37
                             1762.47  1771.16  1795.77  1819.18  1827.84
                             1878.49  1929.39  1949.11  2002.82  2010.90
                             2012.87  2027.23  2056.98  2061.62  2082.78
                             2112.56  2131.93  2134.37  2139.18  2144.38
                             2146.97  2165.84  2170.35  2190.37  2194.13
                             2298.30  2331.19  2354.46  2356.06  2399.63
                             4344.76  4345.94  4357.23  4434.28  4435.77
                             4445.28  4447.90  4453.00  4456.69  4539.29
                             4539.61  4545.56  4555.40  4556.88  4566.59
                             4567.14  4581.27  4591.95

 Zero-point correction=                           0.317491 (Hartree/Particle)
 Thermal correction to Energy=                    0.333345
 Thermal correction to Enthalpy=                  0.334289
 Thermal correction to Gibbs Free Energy=         0.275252
 Sum of electronic and zero-point Energies=           -772.894063
 Sum of electronic and thermal Energies=              -772.878210
 Sum of electronic and thermal Enthalpies=            -772.877266
 Sum of electronic and thermal Free Energies=         -772.936303

                     E (Thermal)             CV                S
                      KCal/Mol        Cal/Mol-Kelvin    Cal/Mol-Kelvin
 Total                  209.177             67.133            124.255
 Electronic               0.000              0.000              0.000
 Translational            0.889              2.981             42.545
 Rotational               0.889              2.981             33.565
 Vibrational            207.400             61.171             48.145
 Vibration     1          0.594              1.983              5.722
 Vibration     2          0.595              1.977              4.793
 Vibration     3          0.611              1.925              2.971
 Vibration     4          0.617              1.906              2.710
 Vibration     5          0.620              1.898              2.620
 Vibration     6          0.643              1.825              2.038
 Vibration     7          0.647              1.811              1.960
 Vibration     8          0.661              1.766              1.746
 Vibration     9          0.662              1.766              1.743
 Vibration    10          0.669              1.744              1.654
 Vibration    11          0.670              1.739              1.637
 Vibration    12          0.695              1.667              1.398
 Vibration    13          0.712              1.618              1.266
 Vibration    14          0.733              1.559              1.132
 Vibration    15          0.746              1.523              1.058
 Vibration    16          0.768              1.465              0.955
 Vibration    17          0.784              1.424              0.888
 Vibration    18          0.804              1.372              0.811
 Vibration    19          0.809              1.362              0.797
 Vibration    20          0.833              1.303              0.720
 Vibration    21          0.860              1.240              0.647
 Vibration    22          0.864              1.230              0.636
 Vibration    23          0.888              1.177              0.581
 Vibration    24          0.889              1.174              0.577
 Vibration    25          0.900              1.151              0.555
 Vibration    26          0.913              1.122              0.528
 Vibration    27          0.927              1.094              0.502
 Vibration    28          0.970              1.008              0.431

 Optimization completed.
    -- Stationary point found.
 Normal termination of Gaussian 09 at Mon Jan  9 19:06:22 2023.
