 Gaussian 09, Revision D.01,
 Gaussian 09:  ES64L-G09RevD.01 24-Apr-2013

 ----------------------------------------------------------------------
 # opt=calcall freq b3lyp/6-311+g(d,p) scrf=check pop=(npa,hirshfeld,mb
 s,chelpg) geom=connectivity
 ----------------------------------------------------------------------

 ---
 tit
 ---
 Symbolic Z-matrix:
 Charge =  0 Multiplicity = 1

 SCF Done:  E(RB3LYP) =  -1282.29663783     A.U. after   16 cycles
 SCF Done:  E(RB3LYP) =  -1282.29663784     A.U. after    7 cycles
 Optimization completed.
    -- Stationary point found.
 Normal termination of Gaussian 09 at Mon Mar  7 13:43:18 2022.

 ----------------------------------------------------------------------
 #N Geom=AllCheck Guess=TCheck SCRF=Check GenChk RB3LYP/6-311+G(d,p) Fr
 eq
 ----------------------------------------------------------------------

 Structure from the checkpoint file:  "PMX610calcall.chk"
 ---
 tit
 ---
 Charge =  0 Multiplicity = 1

                         Standard orientation:
 ---------------------------------------------------------------------
 Center     Atomic      Atomic             Coordinates (Angstroms)
 Number     Number       Type             X           Y           Z
 ---------------------------------------------------------------------
      1          6           0       -3.014721   -0.917071   -0.061170
      2          6           0       -2.631514    0.439133    0.061210
      3          6           0       -3.613712    1.434189    0.165055
      4          6           0       -4.932230    1.030525    0.142536
      5          6           0       -5.326526   -0.303726    0.023297
      6          6           0       -4.356859   -1.294422   -0.080424
      7          6           0       -0.591544   -0.427396   -0.043995
      8          1           0       -3.345386    2.478018    0.259333
      9          1           0       -6.381528   -0.545836    0.013041
     10          1           0       -4.648383   -2.333140   -0.173839
     11         16           0       -1.579123   -1.911051   -0.169705
     12          7           0       -1.273316    0.670270    0.067062
     13          9           0       -5.903125    1.973172    0.240568
     14          6           0        0.874284   -0.485290   -0.066839
     15          6           0        1.571330   -1.688534   -0.235355
     16          6           0        1.603859    0.705156    0.075327
     17          6           0        2.960778   -1.702745   -0.237877
     18          1           0        1.035422   -2.622475   -0.359415
     19          6           0        2.991220    0.696614    0.057328
     20          1           0        1.082898    1.646126    0.196089
     21          6           0        3.684228   -0.522197   -0.077940
     22          1           0        3.509228   -2.629178   -0.359507
     23          8           0        5.053742   -0.569680   -0.114417
     24          8           0        3.673150    1.880058    0.219770
     25          6           0        4.270797    2.401270   -0.977414
     26          1           0        4.777138    3.321273   -0.687606
     27          1           0        4.993123    1.695698   -1.396275
     28          1           0        3.499760    2.627876   -1.720917
     29          6           0        5.720718   -0.265454    1.122641
     30          1           0        5.457229   -1.005668    1.884991
     31          1           0        6.787424   -0.326045    0.910871
     32          1           0        5.464593    0.736406    1.472861
 ---------------------------------------------------------------------

 SCF Done:  E(RB3LYP) =  -1282.29663784     A.U. after    1 cycles

 The electronic state is 1-A.
 Alpha  occ. eigenvalues --  -88.88965 -24.69238 -19.15533 -19.15175 -14.32578
 Alpha  occ. eigenvalues --  -10.26932 -10.26134 -10.24686 -10.24353 -10.22785
 Alpha  occ. eigenvalues --  -10.22672 -10.22583 -10.22311 -10.20807 -10.20451
 Alpha  occ. eigenvalues --  -10.19653 -10.19525 -10.19232 -10.19132 -10.18994
 Alpha  occ. eigenvalues --   -7.97602  -5.93899  -5.93557  -5.93141  -1.23093
 Alpha  occ. eigenvalues --   -1.07914  -1.05752  -0.98385  -0.88196  -0.86912
 Alpha  occ. eigenvalues --   -0.81674  -0.79108  -0.77256  -0.76362  -0.73964
 Alpha  occ. eigenvalues --   -0.71437  -0.69442  -0.65543  -0.63672  -0.61951
 Alpha  occ. eigenvalues --   -0.61338  -0.58276  -0.54964  -0.53365  -0.52707
 Alpha  occ. eigenvalues --   -0.51775  -0.50677  -0.49622  -0.48286  -0.47548
 Alpha  occ. eigenvalues --   -0.46924  -0.46570  -0.46035  -0.45502  -0.44946
 Alpha  occ. eigenvalues --   -0.44569  -0.44022  -0.43667  -0.42243  -0.40446
 Alpha  occ. eigenvalues --   -0.39172  -0.38905  -0.38366  -0.36699  -0.36483
 Alpha  occ. eigenvalues --   -0.36004  -0.34427  -0.31686  -0.31408  -0.29178
 Alpha  occ. eigenvalues --   -0.28516  -0.27747  -0.26338  -0.24890  -0.23273
 Alpha virt. eigenvalues --   -0.07629  -0.02952  -0.02741  -0.01325  -0.00961
 Alpha virt. eigenvalues --    0.00100   0.00923   0.01542   0.01720   0.02061
 Alpha virt. eigenvalues --    0.02550   0.02841   0.03262   0.03559   0.04312

 Mulliken charges:
               1
     1  C    1.409135
     2  C   -0.435626
     3  C   -0.559225
     4  C   -0.378216
     5  C    0.349055
     6  C   -0.774055
     7  C    0.439817
     8  H    0.136529
     9  H    0.141174
    10  H    0.135223
    11  S   -0.473785
    12  N    0.216299
    13  F   -0.178436
    14  C    0.893088
    15  C   -0.453924
    16  C   -0.203033
    17  C   -0.299658
    18  H    0.133882
    19  C   -0.522742
    20  H    0.152546
    21  C    0.026871
    22  H    0.133057
    23  O   -0.175274
    24  O   -0.164340
    25  C   -0.245506
    26  H    0.153005
    27  H    0.168451
    28  H    0.141995
    29  C   -0.231138
    30  H    0.138491
    31  H    0.151348
    32  H    0.174991
 Sum of Mulliken charges =   0.00000

 Dipole moment (field-independent basis, Debye):
    X=              2.3260    Y=             -1.8166    Z=             -0.2311  Tot=              2.9604
 Quadrupole moment (field-independent basis, Debye-Ang):
   XX=           -113.8084   YY=           -117.2456   ZZ=           -125.3037
   XY=             12.2336   XZ=              3.0792   YZ=             -3.0883

  Exact polarizability: 373.232  -4.281 207.807   1.395   4.160 117.307
 Approx polarizability: 508.804 -17.228 378.077  -2.890  18.779 186.963

 ESP charges:
               1
     1  C    0.013170
     2  C    0.375907
     3  C   -0.389284
     4  C    0.445942
     5  C   -0.315942
     6  C   -0.119337
     7  C    0.319561
     8  H    0.192247
     9  H    0.165272
    10  H    0.164287
    11  S   -0.146079
    12  N   -0.505318
    13  F   -0.267128
    14  C    0.027794
    15  C   -0.213749
    16  C   -0.118857
    17  C   -0.153573
    18  H    0.157106
    19  C    0.169214
    20  H    0.105384
    21  C    0.273437
    22  H    0.120910
    23  O   -0.417865
    24  O   -0.373070
    25  C    0.263195
    26  H    0.016842
    27  H   -0.017865
    28  H   -0.023578
    29  C    0.311201
    30  H   -0.041077
    31  H    0.009208
    32  H   -0.027956
 Sum of ESP charges =   0.00000

 Summary of Natural Population Analysis:

                                       Natural Population
                Natural  -----------------------------------------------
    Atom  No    Charge         Core      Valence    Rydberg      Total
 -----------------------------------------------------------------------
      C    1   -0.21467      1.99881     4.19682    0.01904     6.21467
      C    2    0.13120      1.99889     3.84508    0.02484     5.86880
      C    3   -0.25447      1.99894     4.23920    0.01633     6.25447
      C    4    0.40927      1.99850     3.56536    0.02688     5.59073
      C    5   -0.26111      1.99906     4.24459    0.01746     6.26111
      C    6   -0.19864      1.99904     4.18085    0.01875     6.19864
      C    7    0.11819      1.99911     3.84844    0.03426     5.88181
      H    8    0.23842      0.00000     0.75954    0.00204     0.76158
      H    9    0.22720      0.00000     0.77121    0.00160     0.77280
      H   10    0.21909      0.00000     0.77914    0.00178     0.78091
      S   11    0.36261      9.99892     5.60203    0.03644    15.63739
      N   12   -0.46991      1.99924     5.44828    0.02238     7.46991
      F   13   -0.35517      1.99993     7.34728    0.00796     9.35517
      C   14   -0.11084      1.99871     4.09197    0.02016     6.11084
      C   15   -0.16572      1.99894     4.15158    0.01521     6.16572
      C   16   -0.18907      1.99901     4.17199    0.01807     6.18907
      C   17   -0.23255      1.99910     4.21459    0.01886     6.23255
      H   18    0.21145      0.00000     0.78668    0.00187     0.78855
      C   19    0.27253      1.99865     3.70556    0.02326     5.72747
      H   20    0.24255      0.00000     0.75506    0.00239     0.75745
      C   21    0.29008      1.99866     3.68738    0.02388     5.70992
      H   22    0.22241      0.00000     0.77562    0.00197     0.77759
      O   23   -0.57760      1.99972     6.55704    0.02084     8.57760
      O   24   -0.58144      1.99973     6.56128    0.02043     8.58144
      C   25   -0.20193      1.99923     4.18736    0.01534     6.20193
      H   26    0.18547      0.00000     0.81338    0.00115     0.81453
      H   27    0.17863      0.00000     0.81888    0.00249     0.82137
      H   28    0.16950      0.00000     0.82837    0.00213     0.83050
      C   29   -0.20317      1.99923     4.18874    0.01520     6.20317
      H   30    0.16803      0.00000     0.82980    0.00217     0.83197
      H   31    0.18531      0.00000     0.81354    0.00114     0.81469
      H   32    0.18449      0.00000     0.81298    0.00253     0.81551
 =======================================================================
   * Total *    0.00013     47.98141   101.57961    0.43885   149.99987

                      1                      2                      3
                      A                      A                      A
 Frequencies --     15.7430                38.6639                58.9375
 Red. masses --      5.8463                 4.6545                 4.1555
 Frc consts  --      0.0009                 0.0041                 0.0085
 IR Inten    --      0.3895                 0.8779                 2.2103

                      4                      5                      6
                      A                      A                      A
 Frequencies --     76.2912                83.4902               103.4644
 Red. masses --      3.4156                 3.5078                 3.7430
 Frc consts  --      0.0117                 0.0144                 0.0236
 IR Inten    --      1.7247                 3.7673                 1.4517

                      7                      8                      9
                      A                      A                      A
 Frequencies --    134.9148               147.9054               156.3607
 Red. masses --      8.0033                 2.3326                 1.1854
 Frc consts  --      0.0858                 0.0301                 0.0171
 IR Inten    --      0.4172                 1.1953                 0.6599

                     10                     11                     12
                      A                      A                      A
 Frequencies --    167.1662               198.7747               226.8237
 Red. masses --      1.3707                 4.2808                 6.9594
 Frc consts  --      0.0226                 0.0997                 0.2110
 IR Inten    --      1.1224                 1.2750                 2.7161

                     13                     14                     15
                      A                      A                      A
 Frequencies --    245.7216               269.6002               309.0162
 Red. masses --      7.3813                 5.6443                 6.3452
 Frc consts  --      0.2626                 0.2417                 0.3570
 IR Inten    --      3.2599                 7.5652                 1.8962

                     16                     17                     18
                      A                      A                      A
 Frequencies --    332.1342               349.9088               366.7135
 Red. masses --      7.5349                 6.2048                 6.9286
 Frc consts  --      0.4897                 0.4476                 0.5490
 IR Inten    --      1.5826                 1.2880                 2.2468

                     19                     20                     21
                      A                      A                      A
 Frequencies --    396.8552               405.1091               443.0715
 Red. masses --      9.8472                 5.2087                 3.0985
 Frc consts  --      0.9138                 0.5036                 0.3584
 IR Inten    --      2.1394                 4.0431                 3.9057

                     22                     23                     24
                      A                      A                      A
 Frequencies --    456.5161               503.5941               523.4356
 Red. masses --      5.4377                 6.0646                 3.7114
 Frc consts  --      0.6677                 0.9062                 0.5991
 IR Inten    --      9.1815                 3.2604                 5.5915

                     25                     26                     27
                      A                      A                      A
 Frequencies --    560.5254               579.5174               597.3727
 Red. masses --      6.3716                 7.3018                 5.2572
 Frc consts  --      1.1795                 1.4448                 1.1053
 IR Inten    --      1.8337                 5.4273                 7.4561

                     28                     29                     30
                      A                      A                      A
 Frequencies --    631.6833               639.6108               665.1980
 Red. masses --      3.9896                 7.7301                 4.7776
 Frc consts  --      0.9379                 1.8632                 1.2455
 IR Inten    --      3.5623                23.1170                 7.9646

                     31                     32                     33
                      A                      A                      A
 Frequencies --    666.5168               700.0875               707.6407
 Red. masses --      8.8206                 7.1727                 5.9855
 Frc consts  --      2.3087                 2.0713                 1.7659
 IR Inten    --     11.2557                26.0272                 0.0053

                     34                     35                     36
                      A                      A                      A
 Frequencies --    747.3108               774.0221               780.0525
 Red. masses --      5.5687                 3.6712                 4.8562
 Frc consts  --      1.8324                 1.2959                 1.7410
 IR Inten    --      2.3637                17.0595                 1.5492

                     37                     38                     39
                      A                      A                      A
 Frequencies --    808.8555               843.2284               856.8195
 Red. masses --      1.3967                 1.9032                 5.2091
 Frc consts  --      0.5384                 0.7973                 2.2532
 IR Inten    --     29.1281                26.8274                46.9951

                     40                     41                     42
                      A                      A                      A
 Frequencies --    873.0052               930.4725               943.8637
 Red. masses --      1.4630                 1.4696                 1.3058
 Frc consts  --      0.6569                 0.7497                 0.6854
 IR Inten    --     30.6766                 9.5340                 0.1285

                     43                     44                     45
                      A                      A                      A
 Frequencies --    961.6096               975.9120               999.0960
 Red. masses --      1.3678                 2.9349                 5.8860
 Frc consts  --      0.7452                 1.6469                 3.4616
 IR Inten    --      1.4245                40.0960                99.6517

                     46                     47                     48
                      A                      A                      A
 Frequencies --   1020.8893              1041.4465              1081.1219
 Red. masses --      7.9963                 3.0086                 4.1755
 Frc consts  --      4.9102                 1.9226                 2.8754
 IR Inten    --     91.2738                48.0319                 8.7655

                     49                     50                     51
                      A                      A                      A
 Frequencies --   1138.2606              1140.2718              1167.5961
 Red. masses --      1.5453                 1.9026                 2.0262
 Frc consts  --      1.1796                 1.4576                 1.6275
 IR Inten    --    127.3652                24.7108                59.6708

                     52                     53                     54
                      A                      A                      A
 Frequencies --   1168.4631              1170.1481              1183.2574
 Red. masses --      1.2583                 1.2564                 1.7832
 Frc consts  --      1.0122                 1.0136                 1.4710
 IR Inten    --     18.8430                 1.8666                18.6598

                     55                     56                     57
                      A                      A                      A
 Frequencies --   1201.6976              1215.6615              1243.1795
 Red. masses --      1.4029                 1.8021                 2.0324
 Frc consts  --      1.1936                 1.5691                 1.8506
 IR Inten    --      3.0565                 2.7344                51.1952

                     58                     59                     60
                      A                      A                      A
 Frequencies --   1261.7099              1279.7267              1286.5248
 Red. masses --      1.7534                 2.3385                 2.8094
 Frc consts  --      1.6446                 2.2564                 2.7397
 IR Inten    --      6.2049                55.8090               268.4366

                     61                     62                     63
                      A                      A                      A
 Frequencies --   1310.0495              1322.3204              1339.2732
 Red. masses --      4.0764                10.2360                 8.8216
 Frc consts  --      4.1220                10.5452                 9.3226
 IR Inten    --    157.0604                12.8818                12.4422

                     64                     65                     66
                      A                      A                      A
 Frequencies --   1433.2100              1450.9896              1464.2765
 Red. masses --      2.8937                 3.9399                 1.2307
 Frc consts  --      3.5020                 4.8872                 1.5547
 IR Inten    --     76.3529                27.7982                30.4357

                     67                     68                     69
                      A                      A                      A
 Frequencies --   1481.4989              1482.9442              1489.0010
 Red. masses --      1.3236                 3.1387                 1.0544
 Frc consts  --      1.7116                 4.0668                 1.3773
 IR Inten    --     21.4516               122.7313                15.8844

                     70                     71                     72
                      A                      A                      A
 Frequencies --   1490.0484              1505.4673              1510.8331
 Red. masses --      1.0769                 1.0565                 1.0646
 Frc consts  --      1.4087                 1.4108                 1.4317
 IR Inten    --      0.1867                 4.7119                 5.3255

                     73                     74                     75
                      A                      A                      A
 Frequencies --   1517.2746              1549.7030              1600.7750
 Red. masses --      2.9722                 6.7333                 7.1297
 Frc consts  --      4.0314                 9.5275                10.7643
 IR Inten    --    246.7375                57.9774                57.3814

                     76                     77                     78
                      A                      A                      A
 Frequencies --   1602.1337              1637.6908              1642.7134
 Red. masses --      6.7552                 6.2194                 7.0567
 Frc consts  --     10.2162                 9.8279                11.2195
 IR Inten    --     12.4330                30.7008                25.9114

                     79                     80                     81
                      A                      A                      A
 Frequencies --   3016.4709              3020.1940              3084.5331
 Red. masses --      1.0332                 1.0353                 1.1044
 Frc consts  --      5.5391                 5.5642                 6.1909
 IR Inten    --     62.2512                70.9008                23.4767

                     82                     83                     84
                      A                      A                      A
 Frequencies --   3094.9704              3131.5104              3135.8224
 Red. masses --      1.1005                 1.1029                 1.1046
 Frc consts  --      6.2109                 6.3720                 6.3998
 IR Inten    --     23.8183                23.5568                23.1399

                     85                     86                     87
                      A                      A                      A
 Frequencies --   3175.7636              3189.0717              3195.1859
 Red. masses --      1.0882                 1.0890                 1.0942
 Frc consts  --      6.4665                 6.5255                 6.5817
 IR Inten    --      7.4276                 2.7589                 3.9286

                     88                     89                     90
                      A                      A                      A
 Frequencies --   3206.3985              3209.7794              3214.6024
 Red. masses --      1.0949                 1.0912                 1.0928
 Frc consts  --      6.6320                 6.6235                 6.6532
 IR Inten    --      2.1170                 2.7741                 1.0290

 - Thermochemistry -
 -------------------
 Temperature   298.150 Kelvin.  Pressure   1.00000 Atm.
 Atom     1 has atomic number  6 and mass  12.00000

 Molecular mass:   289.05728 amu.
 Principal axes and moments of inertia in atomic units:
                           1         2         3
     Eigenvalues --  2086.09589********************
           X            0.99994   0.01111   0.00193
           Y           -0.01108   0.99983  -0.01489
           Z           -0.00210   0.01487   0.99989
 This molecule is an asymmetric top.
 Rotational symmetry number  1.
 Warning -- assumption of classical behavior for rotation
           may cause significant error
 Rotational temperatures (Kelvin)      0.04152     0.00613     0.00545
 Rotational constants (GHZ):           0.86513     0.12773     0.11351
 Zero-point vibrational energy     624193.9 (Joules/Mol)
                                  149.18592 (Kcal/Mol)
 Warning -- explicit consideration of  27 degrees of freedom as
           vibrations may cause significant error
 Vibrational temperatures:     22.65    55.63    84.80   109.77   120.12
          (Kelvin)            148.86   194.11   212.80   224.97   240.51
                              285.99   326.35   353.54   387.89   444.60
                              477.87   503.44   527.62   570.99   582.86
                              637.48   656.82   724.56   753.11   806.47
                              833.80   859.49   908.85   920.26   957.07
                              958.97  1007.27  1018.14  1075.21  1113.64
                             1122.32  1163.76  1213.22  1232.77  1256.06
                             1338.74  1358.01  1383.54  1404.12  1437.47
                             1468.83  1498.41  1555.49  1637.70  1640.59
                             1679.91  1681.16  1683.58  1702.44  1728.97
                             1749.06  1788.66  1815.32  1841.24  1851.02
                             1884.87  1902.52  1926.91  2062.07  2087.65
                             2106.76  2131.54  2133.62  2142.34  2143.84
                             2166.03  2173.75  2183.02  2229.67  2303.16
                             2305.11  2356.27  2363.50  4340.02  4345.38
                             4437.95  4452.97  4505.54  4511.74  4569.21
                             4588.36  4597.15  4613.29  4618.15  4625.09

 Zero-point correction=                           0.237743 (Hartree/Particle)
 Thermal correction to Energy=                    0.255516
 Thermal correction to Enthalpy=                  0.256460
 Thermal correction to Gibbs Free Energy=         0.190109
 Sum of electronic and zero-point Energies=          -1282.058895
 Sum of electronic and thermal Energies=             -1282.041122
 Sum of electronic and thermal Enthalpies=           -1282.040178
 Sum of electronic and thermal Free Energies=        -1282.106528

                     E (Thermal)             CV                S
                      KCal/Mol        Cal/Mol-Kelvin    Cal/Mol-Kelvin
 Total                  160.338             67.028            139.646
 Electronic               0.000              0.000              0.000
 Translational            0.889              2.981             42.882
 Rotational               0.889              2.981             34.504
 Vibrational            158.561             61.067             62.260
 Vibration     1          0.593              1.986              7.110
 Vibration     2          0.594              1.981              5.326
 Vibration     3          0.596              1.974              4.492
 Vibration     4          0.599              1.965              3.984
 Vibration     5          0.600              1.961              3.807
 Vibration     6          0.605              1.946              3.388
 Vibration     7          0.613              1.918              2.875
 Vibration     8          0.617              1.905              2.699
 Vibration     9          0.620              1.896              2.593
 Vibration    10          0.624              1.883              2.467
 Vibration    11          0.637              1.842              2.144
 Vibration    12          0.650              1.800              1.904
 Vibration    13          0.660              1.770              1.761
 Vibration    14          0.674              1.729              1.599
 Vibration    15          0.698              1.657              1.368
 Vibration    16          0.714              1.611              1.250
 Vibration    17          0.727              1.575              1.167
 Vibration    18          0.740              1.541              1.094
 Vibration    19          0.763              1.477              0.974
 Vibration    20          0.770              1.459              0.944
 Vibration    21          0.803              1.376              0.817
 Vibration    22          0.815              1.346              0.776
 Vibration    23          0.859              1.242              0.649
 Vibration    24          0.878              1.198              0.602
 Vibration    25          0.916              1.117              0.523
 Vibration    26          0.936              1.076              0.486
 Vibration    27          0.955              1.037              0.454

 Optimization completed.
    -- Stationary point found.
 Normal termination of Gaussian 09 at Mon Mar  7 14:17:43 2022.
