 Gaussian 09, Revision D.01,
 Gaussian 09:  ES64L-G09RevD.01 24-Apr-2013

 ----------------------------------------------------------------------
 # opt freq=noraman b3lyp/6-311+g(d,p) pop=(npa,hirshfeld,chelpg,mbs) g
 eom=connectivity
 ----------------------------------------------------------------------

 -------------------
 Title Card Required
 -------------------
 Symbolic Z-matrix:
 Charge =  0 Multiplicity = 1

 SCF Done:  E(RB3LYP) =  -784.208527510     A.U. after   15 cycles
 SCF Done:  E(RB3LYP) =  -784.330600054     A.U. after   15 cycles
 SCF Done:  E(RB3LYP) =  -784.411256000     A.U. after   15 cycles
 SCF Done:  E(RB3LYP) =  -784.419594919     A.U. after   13 cycles
 SCF Done:  E(RB3LYP) =  -784.420970649     A.U. after   13 cycles
 SCF Done:  E(RB3LYP) =  -784.421077219     A.U. after   12 cycles
 SCF Done:  E(RB3LYP) =  -784.418348573     A.U. after   15 cycles
 SCF Done:  E(RB3LYP) =  -784.421097133     A.U. after   10 cycles
 SCF Done:  E(RB3LYP) =  -784.421115575     A.U. after   12 cycles
 SCF Done:  E(RB3LYP) =  -784.421116242     A.U. after   10 cycles
 SCF Done:  E(RB3LYP) =  -784.421116343     A.U. after   10 cycles
 SCF Done:  E(RB3LYP) =  -784.421116425     A.U. after   10 cycles
 Optimization completed.
    -- Stationary point found.
 Normal termination of Gaussian 09 at Thu Feb  2 15:38:12 2023.

 ----------------------------------------------------------------------
 #N Geom=AllCheck Guess=TCheck SCRF=Check GenChk RB3LYP/6-311+G(d,p) Fr
 eq
 ----------------------------------------------------------------------

 Structure from the checkpoint file:  "regiodevergent1f_Ishiyana.chk"
 -------------------
 Title Card Required
 -------------------
 Charge =  0 Multiplicity = 1

                         Standard orientation:
 ---------------------------------------------------------------------
 Center     Atomic      Atomic             Coordinates (Angstroms)
 Number     Number       Type             X           Y           Z
 ---------------------------------------------------------------------
      1          6           0        2.358531    0.181981    0.000024
      2          6           0        1.796145    1.435604   -0.000103
      3          6           0        0.378723    1.414116   -0.000154
      4          6           0       -0.145978    0.141849   -0.000076
      5          1           0        2.386313    2.343561   -0.000151
      6          1           0       -0.231603    2.307704   -0.000247
      7          6           0        3.815075   -0.169521    0.000101
      8          1           0        4.088505   -0.755768    0.882259
      9          1           0        4.088581   -0.755835   -0.881989
     10          1           0        4.417131    0.741115    0.000092
     11          6           0       -1.547409   -0.308437   -0.000086
     12          8           0       -1.823250   -1.496710   -0.000278
     13          6           0       -2.630779    0.766159    0.000145
     14          1           0       -2.471100    1.408548    0.874094
     15          1           0       -2.471201    1.408818   -0.873622
     16          6           0       -4.047254    0.196253    0.000145
     17          1           0       -4.781319    1.005868    0.000329
     18          1           0       -4.220465   -0.426764   -0.879151
     19          1           0       -4.220348   -0.427057    0.879257
     20         16           0        1.133699   -1.051533    0.000086
 ---------------------------------------------------------------------

 SCF Done:  E(RB3LYP) =  -784.421116425     A.U. after    1 cycles

 The electronic state is 1-A.
 Alpha  occ. eigenvalues --  -88.88293 -19.11096 -10.26615 -10.22464 -10.21041
 Alpha  occ. eigenvalues --  -10.19699 -10.19129 -10.18721 -10.18405 -10.16144
 Alpha  occ. eigenvalues --   -7.96899  -5.93181  -5.92808  -5.92506  -1.04607
 Alpha  occ. eigenvalues --   -0.89708  -0.79612  -0.77482  -0.74946  -0.71068
 Alpha  occ. eigenvalues --   -0.65268  -0.60112  -0.55242  -0.53159  -0.50330
 Alpha  occ. eigenvalues --   -0.46994  -0.46141  -0.44430  -0.44102  -0.42716
 Alpha  occ. eigenvalues --   -0.40308  -0.40108  -0.39317  -0.37104  -0.36610
 Alpha  occ. eigenvalues --   -0.36529  -0.35163  -0.35006  -0.26655  -0.26052
 Alpha  occ. eigenvalues --   -0.24702
 Alpha virt. eigenvalues --   -0.07100  -0.00617   0.00391   0.00665   0.01444
 Alpha virt. eigenvalues --    0.02022   0.03005   0.03684   0.03705   0.04748
 Alpha virt. eigenvalues --    0.05423   0.05602   0.05766   0.05979   0.07263

 Mulliken charges:
               1
     1  C    0.375870
     2  C   -0.856652
     3  C    0.416648
     4  C    0.515919
     5  H    0.126987
     6  H    0.136113
     7  C   -0.120335
     8  H    0.164251
     9  H    0.164258
    10  H    0.150507
    11  C   -0.436934
    12  O   -0.266884
    13  C   -0.185877
    14  H    0.167099
    15  H    0.167075
    16  C   -0.650613
    17  H    0.133815
    18  H    0.153101
    19  H    0.153101
    20  S   -0.307448
 Sum of Mulliken charges =   0.00000

 Dipole moment (field-independent basis, Debye):
    X=              2.1274    Y=              3.3176    Z=              0.0005  Tot=              3.9411
 Quadrupole moment (field-independent basis, Debye-Ang):
   XX=            -58.9379   YY=            -69.2260   ZZ=            -69.1073
   XY=             -5.5183   XZ=             -0.0007   YZ=             -0.0014

  Exact polarizability: 162.334   3.541 117.344  -0.005  -0.012  73.422
 Approx polarizability: 218.552  15.502 216.175   0.004  -0.002 114.673

 ESP charges:
               1
     1  C    0.113070
     2  C   -0.208068
     3  C   -0.096358
     4  C   -0.163065
     5  H    0.132031
     6  H    0.118592
     7  C   -0.140738
     8  H    0.068979
     9  H    0.068989
    10  H    0.051644
    11  C    0.525846
    12  O   -0.487362
    13  C    0.065620
    14  H   -0.009834
    15  H   -0.009877
    16  C   -0.135291
    17  H    0.037108
    18  H    0.034151
    19  H    0.034163
    20  S    0.000398
 Sum of ESP charges =   0.00000

 Summary of Natural Population Analysis:

                                       Natural Population
                Natural  -----------------------------------------------
    Atom  No    Charge         Core      Valence    Rydberg      Total
 -----------------------------------------------------------------------
      C    1   -0.16956      1.99905     4.14832    0.02218     6.16956
      C    2   -0.27178      1.99895     4.25425    0.01858     6.27178
      C    3   -0.19849      1.99901     4.18226    0.01722     6.19849
      C    4   -0.29870      1.99891     4.27674    0.02304     6.29870
      H    5    0.21855      0.00000     0.77972    0.00172     0.78145
      H    6    0.22112      0.00000     0.77706    0.00183     0.77888
      C    7   -0.60486      1.99925     4.59373    0.01187     6.60486
      H    8    0.22085      0.00000     0.77778    0.00137     0.77915
      H    9    0.22085      0.00000     0.77778    0.00137     0.77915
      H   10    0.21793      0.00000     0.78073    0.00134     0.78207
      C   11    0.52794      1.99917     3.43199    0.04091     5.47206
      O   12   -0.56498      1.99976     6.55258    0.01264     8.56498
      C   13   -0.46636      1.99923     4.45535    0.01178     6.46636
      H   14    0.21572      0.00000     0.78223    0.00205     0.78428
      H   15    0.21572      0.00000     0.78224    0.00205     0.78428
      C   16   -0.57480      1.99938     4.56482    0.01061     6.57480
      H   17    0.19806      0.00000     0.80069    0.00125     0.80194
      H   18    0.20941      0.00000     0.78903    0.00156     0.79059
      H   19    0.20941      0.00000     0.78903    0.00156     0.79059
      S   20    0.47398      9.99878     5.48539    0.04186    15.52602
 =======================================================================
   * Total *    0.00000     27.99150    53.78172    0.22678    82.00000

                      1                      2                      3
                      A                      A                      A
 Frequencies --     40.5385                61.5915                76.1886
 Red. masses --      2.1036                 2.3842                 1.1813
 Frc consts  --      0.0020                 0.0053                 0.0040
 IR Inten    --      0.0095                 2.9604                 0.0013

                      4                      5                      6
                      A                      A                      A
 Frequencies --    113.6251               123.4319               211.5563
 Red. masses --      5.7106                 4.0106                 1.1718
 Frc consts  --      0.0434                 0.0360                 0.0309
 IR Inten    --      0.0081                 2.1561                 0.6305

                      7                      8                      9
                      A                      A                      A
 Frequencies --    259.1621               266.0386               310.7331
 Red. masses --      4.1071                 3.3126                 4.0339
 Frc consts  --      0.1625                 0.1381                 0.2295
 IR Inten    --      3.3942                 0.8836                 3.9512

                     10                     11                     12
                      A                      A                      A
 Frequencies --    318.3429               457.1171               464.2989
 Red. masses --      3.9604                 7.4474                 4.1486
 Frc consts  --      0.2365                 0.9169                 0.5269
 IR Inten    --      6.1877                 2.5482                 6.3176

                     13                     14                     15
                      A                      A                      A
 Frequencies --    565.5142               595.5559               599.9435
 Red. masses --      2.7364                 2.5221                 4.7567
 Frc consts  --      0.5156                 0.5271                 1.0087
 IR Inten    --      2.5552                 2.6280                 4.9045

                     16                     17                     18
                      A                      A                      A
 Frequencies --    675.9608               718.2584               743.6312
 Red. masses --      5.3642                 4.2395                 6.8161
 Frc consts  --      1.4441                 1.2886                 2.2208
 IR Inten    --      0.6602                 3.9604                 0.2820

                     19                     20                     21
                      A                      A                      A
 Frequencies --    800.8952               821.1963               892.6445
 Red. masses --      1.2793                 1.3829                 5.1075
 Frc consts  --      0.4835                 0.5495                 2.3978
 IR Inten    --     45.1205                 3.1810                53.4438

                     22                     23                     24
                      A                      A                      A
 Frequencies --    902.5836               988.5557              1012.3596
 Red. masses --      1.4067                 1.6964                 1.6294
 Frc consts  --      0.6752                 0.9768                 0.9839
 IR Inten    --      0.0102                 5.9802                 7.7328

                     25                     26                     27
                      A                      A                      A
 Frequencies --   1055.8030              1075.9106              1089.5529
 Red. masses --      1.4263                 1.3860                 1.6557
 Frc consts  --      0.9368                 0.9453                 1.1581
 IR Inten    --      1.0524                38.9989                 0.0409

                     28                     29                     30
                      A                      A                      A
 Frequencies --   1100.9473              1177.0662              1229.5419
 Red. masses --      2.1621                 4.2171                 3.1149
 Frc consts  --      1.5441                 3.4425                 2.7744
 IR Inten    --      5.7775                16.5454                92.0357

                     31                     32                     33
                      A                      A                      A
 Frequencies --   1255.2173              1281.0043              1358.5532
 Red. masses --      1.5624                 1.1797                 3.0326
 Frc consts  --      1.4504                 1.1406                 3.2978
 IR Inten    --     94.9071                 0.1284                 2.2263

                     34                     35                     36
                      A                      A                      A
 Frequencies --   1370.0198              1417.0730              1417.5730
 Red. masses --      1.9677                 1.2367                 1.2266
 Frc consts  --      2.1761                 1.4632                 1.4523
 IR Inten    --     33.2377                 1.7981                 6.1842

                     37                     38                     39
                      A                      A                      A
 Frequencies --   1461.4870              1479.1494              1484.7470
 Red. masses --      1.0953                 1.0409                 1.6026
 Frc consts  --      1.3784                 1.3418                 2.0815
 IR Inten    --      9.4104                 9.8521                62.6643

                     40                     41                     42
                      A                      A                      A
 Frequencies --   1493.4274              1501.5604              1503.2330
 Red. masses --      1.0368                 1.0767                 2.0983
 Frc consts  --      1.3624                 1.4303                 2.7936
 IR Inten    --      7.8233                23.6667                91.7349

                     43                     44                     45
                      A                      A                      A
 Frequencies --   1578.6351              1720.1667              3019.8074
 Red. masses --      4.7646                11.2322                 1.0600
 Frc consts  --      6.9959                19.5820                 5.6955
 IR Inten    --      3.4685               244.5089                22.1066

                     46                     47                     48
                      A                      A                      A
 Frequencies --   3027.8422              3041.5447              3047.0956
 Red. masses --      1.0360                 1.0359                 1.1002
 Frc consts  --      5.5961                 5.6462                 6.0184
 IR Inten    --     26.7976                30.7179                 7.0726

                     49                     50                     51
                      A                      A                      A
 Frequencies --   3077.9066              3105.2003              3106.8361
 Red. masses --      1.1008                 1.1012                 1.1008
 Frc consts  --      6.1445                 6.2562                 6.2603
 IR Inten    --      9.7174                21.3668                11.9476

                     52                     53                     54
                      A                      A                      A
 Frequencies --   3114.6965              3190.4602              3209.0372
 Red. masses --      1.1024                 1.0902                 1.0962
 Frc consts  --      6.3014                 6.5380                 6.6512
 IR Inten    --     23.1049                 9.6582                 3.3527

 - Thermochemistry -
 -------------------
 Temperature   298.150 Kelvin.  Pressure   1.00000 Atm.
 Atom     1 has atomic number  6 and mass  12.00000

 Molecular mass:   154.04524 amu.
 Principal axes and moments of inertia in atomic units:
                           1         2         3
     Eigenvalues --   542.265412927.427913436.36980
           X            0.99996  -0.00919   0.00000
           Y            0.00919   0.99996   0.00000
           Z            0.00000   0.00000   1.00000
 This molecule is an asymmetric top.
 Rotational symmetry number  1.
 Warning -- assumption of classical behavior for rotation
           may cause significant error
 Rotational temperatures (Kelvin)      0.15973     0.02959     0.02521
 Rotational constants (GHZ):           3.32815     0.61649     0.52519
 Zero-point vibrational energy     418757.7 (Joules/Mol)
                                  100.08549 (Kcal/Mol)
 Warning -- explicit consideration of  15 degrees of freedom as
           vibrations may cause significant error
 Vibrational temperatures:     58.33    88.62   109.62   163.48   177.59
          (Kelvin)            304.38   372.88   382.77   447.08   458.02
                              657.69   668.02   813.65   856.87   863.18
                              972.56  1033.41  1069.92  1152.31  1181.52
                             1284.31  1298.61  1422.31  1456.56  1519.06
                             1547.99  1567.62  1584.02  1693.53  1769.03
                             1805.98  1843.08  1954.65  1971.15  2038.85
                             2039.57  2102.75  2128.16  2136.22  2148.71
                             2160.41  2162.81  2271.30  2474.93  4344.82
                             4356.38  4376.10  4384.09  4428.42  4467.69
                             4470.04  4481.35  4590.35  4617.08

 Zero-point correction=                           0.159496 (Hartree/Particle)
 Thermal correction to Energy=                    0.170365
 Thermal correction to Enthalpy=                  0.171309
 Thermal correction to Gibbs Free Energy=         0.121786
 Sum of electronic and zero-point Energies=           -784.261620
 Sum of electronic and thermal Energies=              -784.250751
 Sum of electronic and thermal Enthalpies=            -784.249807
 Sum of electronic and thermal Free Energies=         -784.299330

                     E (Thermal)             CV                S
                      KCal/Mol        Cal/Mol-Kelvin    Cal/Mol-Kelvin
 Total                  106.906             38.570            104.231
 Electronic               0.000              0.000              0.000
 Translational            0.889              2.981             41.006
 Rotational               0.889              2.981             30.079
 Vibrational            105.128             32.608             33.145
 Vibration     1          0.594              1.981              5.233
 Vibration     2          0.597              1.973              4.406
 Vibration     3          0.599              1.965              3.987
 Vibration     4          0.607              1.938              3.206
 Vibration     5          0.610              1.929              3.046
 Vibration     6          0.643              1.823              2.030
 Vibration     7          0.668              1.747              1.667
 Vibration     8          0.672              1.735              1.622
 Vibration     9          0.700              1.653              1.358
 Vibration    10          0.705              1.639              1.319
 Vibration    11          0.815              1.345              0.775
 Vibration    12          0.822              1.329              0.754
 Vibration    13          0.921              1.106              0.513
 Vibration    14          0.953              1.041              0.457
 Vibration    15          0.958              1.032              0.450

 Optimization completed.
    -- Stationary point found.
 Normal termination of Gaussian 09 at Thu Feb  2 15:40:36 2023.
