 Gaussian 09, Revision D.01,
 Gaussian 09:  ES64L-G09RevD.01 24-Apr-2013

 ----------------------------------------------------------------------
 # opt freq=noraman b3lyp/6-311+g(d,p) pop=(npa,hirshfeld,chelpg,mbs) g
 eom=connectivity
 ----------------------------------------------------------------------

 -------------------
 Title Card Required
 -------------------
 Symbolic Z-matrix:
 Charge =  0 Multiplicity = 1

 SCF Done:  E(RB3LYP) =  -839.556065603     A.U. after   15 cycles
 SCF Done:  E(RB3LYP) =  -839.678939129     A.U. after   14 cycles
 SCF Done:  E(RB3LYP) =  -839.762291749     A.U. after   15 cycles
 SCF Done:  E(RB3LYP) =  -839.771102192     A.U. after   13 cycles
 SCF Done:  E(RB3LYP) =  -839.772692180     A.U. after   12 cycles
 SCF Done:  E(RB3LYP) =  -839.772898258     A.U. after   12 cycles
 SCF Done:  E(RB3LYP) =  -839.771824445     A.U. after   13 cycles
 SCF Done:  E(RB3LYP) =  -839.772937321     A.U. after    9 cycles
 SCF Done:  E(RB3LYP) =  -839.772827810     A.U. after   12 cycles
 SCF Done:  E(RB3LYP) =  -839.772973764     A.U. after   13 cycles
 SCF Done:  E(RB3LYP) =  -839.788935566     A.U. after   12 cycles
 SCF Done:  E(RB3LYP) =  -839.788966726     A.U. after   12 cycles
 SCF Done:  E(RB3LYP) =  -839.788998957     A.U. after   12 cycles
 SCF Done:  E(RB3LYP) =  -839.789007193     A.U. after   12 cycles
 SCF Done:  E(RB3LYP) =  -839.789009302     A.U. after   11 cycles
 SCF Done:  E(RB3LYP) =  -839.789010336     A.U. after    9 cycles
 SCF Done:  E(RB3LYP) =  -839.789010906     A.U. after    9 cycles
 SCF Done:  E(RB3LYP) =  -839.789011395     A.U. after   11 cycles
 SCF Done:  E(RB3LYP) =  -839.789011601     A.U. after    9 cycles
 Optimization completed.
    -- Stationary point found.
 Normal termination of Gaussian 09 at Thu Feb  2 15:47:45 2023.

 ----------------------------------------------------------------------
 #N Geom=AllCheck Guess=TCheck SCRF=Check GenChk RB3LYP/6-311+G(d,p) Fr
 eq
 ----------------------------------------------------------------------

 Structure from the checkpoint file:  "regiodevergent1i_Ishiyana.chk"
 -------------------
 Title Card Required
 -------------------
 Charge =  0 Multiplicity = 1

                         Standard orientation:
 ---------------------------------------------------------------------
 Center     Atomic      Atomic             Coordinates (Angstroms)
 Number     Number       Type             X           Y           Z
 ---------------------------------------------------------------------
      1          6           0        2.550335    0.198116   -0.018307
      2          6           0        1.944935    1.328169   -0.504586
      3          6           0        0.528615    1.225809   -0.572914
      4          6           0        0.050155    0.014954   -0.138176
      5          1           0        2.499595    2.207235   -0.808860
      6          1           0       -0.105775    2.012131   -0.959595
      7          6           0        4.012507   -0.041455    0.208073
      8          1           0        4.233575   -0.230146    1.262910
      9          1           0        4.375932   -0.900572   -0.363236
     10          1           0        4.583679    0.835509   -0.103150
     11          6           0       -1.316549   -0.573077   -0.156733
     12          8           0       -1.461545   -1.771260   -0.382650
     13          7           0       -2.390920    0.262753    0.039317
     14          6           0       -3.726748   -0.289845   -0.154389
     15          1           0       -4.165913   -0.615374    0.796806
     16          1           0       -4.372244    0.476169   -0.592992
     17          1           0       -3.669183   -1.148257   -0.818772
     18          6           0       -2.345887    1.551709    0.718204
     19          1           0       -2.643978    2.367345    0.049200
     20          1           0       -3.039521    1.539849    1.566466
     21          1           0       -1.348382    1.752803    1.098485
     22         16           0        1.368552   -1.028260    0.335731
 ---------------------------------------------------------------------

 SCF Done:  E(RB3LYP) =  -839.789011601     A.U. after    2 cycles

 The electronic state is 1-A.
 Alpha  occ. eigenvalues --  -88.87763 -19.08533 -14.34876 -10.27915 -10.21585
 Alpha  occ. eigenvalues --  -10.21225 -10.20952 -10.19982 -10.18861 -10.18631
 Alpha  occ. eigenvalues --  -10.18074  -7.96372  -5.92659  -5.92283  -5.91972
 Alpha  occ. eigenvalues --   -1.04080  -0.93918  -0.89077  -0.78167  -0.74374
 Alpha  occ. eigenvalues --   -0.73206  -0.71803  -0.67953  -0.59984  -0.55244
 Alpha  occ. eigenvalues --   -0.54273  -0.51770  -0.48363  -0.47368  -0.46445
 Alpha  occ. eigenvalues --   -0.43909  -0.43157  -0.41564  -0.41286  -0.40932
 Alpha  occ. eigenvalues --   -0.40215  -0.39563  -0.38281  -0.37328  -0.35861
 Alpha  occ. eigenvalues --   -0.34576  -0.26945  -0.25873  -0.24703  -0.23729
 Alpha virt. eigenvalues --   -0.04879  -0.00577   0.00305   0.01332   0.01810
 Alpha virt. eigenvalues --    0.01955   0.02731   0.03133   0.03702   0.04622
 Alpha virt. eigenvalues --    0.05040   0.05306   0.05719   0.06063   0.07016

 Mulliken charges:
               1
     1  C    0.172902
     2  C   -0.364783
     3  C    0.082754
     4  C    0.359073
     5  H    0.122711
     6  H    0.131630
     7  C   -0.276633
     8  H    0.161888
     9  H    0.161565
    10  H    0.148750
    11  C   -0.318911
    12  O   -0.323230
    13  N   -0.056363
    14  C   -0.260949
    15  H    0.151158
    16  H    0.137957
    17  H    0.177889
    18  C   -0.383036
    19  H    0.152728
    20  H    0.140510
    21  H    0.167369
    22  S   -0.284978
 Sum of Mulliken charges =   0.00000

 Dipole moment (field-independent basis, Debye):
    X=              0.4544    Y=              3.9850    Z=              0.8243  Tot=              4.0946
 Quadrupole moment (field-independent basis, Debye-Ang):
   XX=            -58.5180   YY=            -77.2415   ZZ=            -75.0188
   XY=             -5.0702   XZ=             -1.1785   YZ=             -2.1578

  Exact polarizability: 172.107  -1.481 123.789  -0.293  -5.965  85.121
 Approx polarizability: 226.267  -0.657 219.734   1.414 -17.532 134.127

 ESP charges:
               1
     1  C    0.081574
     2  C   -0.232744
     3  C   -0.026501
     4  C   -0.176430
     5  H    0.135020
     6  H    0.081957
     7  C   -0.083809
     8  H    0.048569
     9  H    0.059077
    10  H    0.035113
    11  C    0.647480
    12  O   -0.564521
    13  N   -0.235858
    14  C   -0.121270
    15  H    0.081507
    16  H    0.063258
    17  H    0.086323
    18  C    0.010232
    19  H    0.046225
    20  H    0.043734
    21  H    0.020791
    22  S    0.000274
 Sum of ESP charges =   0.00000

 Summary of Natural Population Analysis:

                                       Natural Population
                Natural  -----------------------------------------------
    Atom  No    Charge         Core      Valence    Rydberg      Total
 -----------------------------------------------------------------------
      C    1   -0.18358      1.99905     4.16244    0.02209     6.18358
      C    2   -0.26961      1.99895     4.25208    0.01859     6.26961
      C    3   -0.22510      1.99900     4.20844    0.01766     6.22510
      C    4   -0.28799      1.99893     4.26570    0.02336     6.28799
      H    5    0.21701      0.00000     0.78125    0.00173     0.78299
      H    6    0.22028      0.00000     0.77796    0.00176     0.77972
      C    7   -0.60241      1.99926     4.59135    0.01180     6.60241
      H    8    0.21793      0.00000     0.78069    0.00139     0.78207
      H    9    0.21890      0.00000     0.77971    0.00139     0.78110
      H   10    0.21699      0.00000     0.78167    0.00134     0.78301
      C   11    0.64781      1.99912     3.31018    0.04288     5.35219
      O   12   -0.63092      1.99977     6.61963    0.01152     8.63092
      N   13   -0.49578      1.99931     5.48106    0.01542     7.49578
      C   14   -0.35927      1.99935     4.34625    0.01368     6.35927
      H   15    0.18692      0.00000     0.81103    0.00205     0.81308
      H   16    0.18709      0.00000     0.81135    0.00156     0.81291
      H   17    0.23109      0.00000     0.76720    0.00171     0.76891
      C   18   -0.35741      1.99934     4.34536    0.01271     6.35741
      H   19    0.18549      0.00000     0.81274    0.00177     0.81451
      H   20    0.19016      0.00000     0.80785    0.00199     0.80984
      H   21    0.21623      0.00000     0.78233    0.00145     0.78377
      S   22    0.47619      9.99877     5.48358    0.04147    15.52381
 =======================================================================
   * Total *    0.00000     29.99083    59.75986    0.24932    90.00000

                      1                      2                      3
                      A                      A                      A
 Frequencies --     42.6035                72.6931                88.8180
 Red. masses --      3.4696                 2.9746                 1.0742
 Frc consts  --      0.0037                 0.0093                 0.0050
 IR Inten    --      1.8038                 1.9439                 0.0827

                      4                      5                      6
                      A                      A                      A
 Frequencies --     96.6110               107.2905               149.2817
 Red. masses --      1.7030                 4.5835                 1.3585
 Frc consts  --      0.0094                 0.0311                 0.0178
 IR Inten    --      0.7457                 2.5272                 0.9412

                      7                      8                      9
                      A                      A                      A
 Frequencies --    192.2485               214.6330               261.2917
 Red. masses --      2.1073                 3.2519                 2.2171
 Frc consts  --      0.0459                 0.0883                 0.0892
 IR Inten    --      2.1971                 1.1899                 4.1055

                     10                     11                     12
                      A                      A                      A
 Frequencies --    301.4099               317.9497               347.5836
 Red. masses --      4.6920                 3.6575                 3.3240
 Frc consts  --      0.2511                 0.2178                 0.2366
 IR Inten    --      1.1273                 2.0592                 5.6817

                     13                     14                     15
                      A                      A                      A
 Frequencies --    403.9517               459.7542               520.0577
 Red. masses --      3.2083                 4.1920                 5.6013
 Frc consts  --      0.3084                 0.5221                 0.8926
 IR Inten    --      6.3263                 9.4409                 3.1595

                     16                     17                     18
                      A                      A                      A
 Frequencies --    574.2175               596.9028               668.4920
 Red. masses --      3.6024                 4.4647                 5.1490
 Frc consts  --      0.6998                 0.9372                 1.3557
 IR Inten    --      3.4146                 4.6427                 1.7579

                     19                     20                     21
                      A                      A                      A
 Frequencies --    705.2152               742.0992               760.1252
 Red. masses --      6.5407                 6.6958                 6.1943
 Frc consts  --      1.9165                 2.1726                 2.1087
 IR Inten    --      4.2691                19.1961                11.7340

                     22                     23                     24
                      A                      A                      A
 Frequencies --    814.8322               881.3885               903.1017
 Red. masses --      1.3162                 3.8312                 1.5407
 Frc consts  --      0.5149                 1.7535                 0.7404
 IR Inten    --     33.1731                10.0993                 0.7734

                     25                     26                     27
                      A                      A                      A
 Frequencies --    987.2410              1044.6569              1057.4858
 Red. masses --      1.7173                 1.9964                 1.4171
 Frc consts  --      0.9861                 1.2837                 0.9337
 IR Inten    --      4.5294                78.1868                 1.0092

                     28                     29                     30
                      A                      A                      A
 Frequencies --   1075.8380              1083.8738              1125.3067
 Red. masses --      1.3976                 1.4570                 1.2250
 Frc consts  --      0.9530                 1.0085                 0.9139
 IR Inten    --     27.9284                38.5582                 0.3046

                     31                     32                     33
                      A                      A                      A
 Frequencies --   1162.2518              1176.9126              1216.5015
 Red. masses --      1.3958                 4.2087                 3.5614
 Frc consts  --      1.1109                 3.4347                 3.1052
 IR Inten    --      5.5830                 6.6561                74.5865

                     34                     35                     36
                      A                      A                      A
 Frequencies --   1247.2891              1280.1334              1354.7351
 Red. masses --      1.5295                 3.9406                 2.9399
 Frc consts  --      1.4019                 3.8047                 3.1790
 IR Inten    --     10.6911                74.4753                 5.9706

                     37                     38                     39
                      A                      A                      A
 Frequencies --   1407.5893              1418.1334              1439.1057
 Red. masses --      2.6800                 1.2543                 1.1472
 Frc consts  --      3.1285                 1.4862                 1.3999
 IR Inten    --    219.3674                 3.9410                 8.8953

                     40                     41                     42
                      A                      A                      A
 Frequencies --   1468.8362              1479.7789              1487.7459
 Red. masses --      1.2297                 1.0412                 1.2112
 Frc consts  --      1.5631                 1.3434                 1.5795
 IR Inten    --     20.2499                 9.3767                29.5231

                     43                     44                     45
                      A                      A                      A
 Frequencies --   1489.3378              1496.6394              1506.3673
 Red. masses --      1.1996                 1.0497                 2.1298
 Frc consts  --      1.5677                 1.3853                 2.8474
 IR Inten    --     11.9280                14.3188                57.5078

                     46                     47                     48
                      A                      A                      A
 Frequencies --   1510.3405              1534.1011              1583.9277
 Red. masses --      1.1544                 1.2562                 4.8184
 Frc consts  --      1.5515                 1.7419                 7.1223
 IR Inten    --     17.1370                86.4555                10.5185

                     49                     50                     51
                      A                      A                      A
 Frequencies --   1678.7906              3001.9734              3007.8400
 Red. masses --     10.1055                 1.0420                 1.0450
 Frc consts  --     16.7804                 5.5325                 5.5703
 IR Inten    --    329.9268                36.0687               106.1181

                     52                     53                     54
                      A                      A                      A
 Frequencies --   3026.3341              3044.3216              3066.0714
 Red. masses --      1.0361                 1.1032                 1.0949
 Frc consts  --      5.5907                 6.0241                 6.0643
 IR Inten    --     32.0626                39.2483                29.7845

                     55                     56                     57
                      A                      A                      A
 Frequencies --   3075.7750              3104.2990              3155.3305
 Red. masses --      1.1009                 1.1007                 1.0968
 Frc consts  --      6.1363                 6.2496                 6.4338
 IR Inten    --     11.2686                12.3962                 1.0582

                     58                     59                     60
                      A                      A                      A
 Frequencies --   3157.1609              3188.7111              3209.1089
 Red. masses --      1.0945                 1.0904                 1.0959
 Frc consts  --      6.4277                 6.5325                 6.6498
 IR Inten    --      7.2268                10.2715                 4.4492

 - Thermochemistry -
 -------------------
 Temperature   298.150 Kelvin.  Pressure   1.00000 Atm.
 Atom     1 has atomic number  6 and mass  12.00000

 Molecular mass:   169.05614 amu.
 Principal axes and moments of inertia in atomic units:
                           1         2         3
     Eigenvalues --   753.029413250.069633794.81260
           X            0.99997  -0.00649  -0.00322
           Y            0.00651   0.99996   0.00598
           Z            0.00318  -0.00600   0.99998
 This molecule is an asymmetric top.
 Rotational symmetry number  1.
 Warning -- assumption of classical behavior for rotation
           may cause significant error
 Rotational temperatures (Kelvin)      0.11502     0.02665     0.02282
 Rotational constants (GHZ):           2.39664     0.55529     0.47558
 Zero-point vibrational energy     463986.0 (Joules/Mol)
                                  110.89531 (Kcal/Mol)
 Warning -- explicit consideration of  17 degrees of freedom as
           vibrations may cause significant error
 Vibrational temperatures:     61.30   104.59   127.79   139.00   154.37
          (Kelvin)            214.78   276.60   308.81   375.94   433.66
                              457.46   500.09   581.20   661.48   748.25
                              826.17   858.81   961.81  1014.65  1067.71
                             1093.65  1172.36  1268.12  1299.36  1420.42
                             1503.03  1521.48  1547.89  1559.45  1619.06
                             1672.22  1693.31  1750.27  1794.57  1841.82
                             1949.16  2025.20  2040.38  2070.55  2113.33
                             2129.07  2140.53  2142.82  2153.33  2167.32
                             2173.04  2207.23  2278.92  2415.40  4319.16
                             4327.61  4354.21  4380.09  4411.39  4425.35
                             4466.39  4539.81  4542.44  4587.84  4617.19

 Zero-point correction=                           0.176723 (Hartree/Particle)
 Thermal correction to Energy=                    0.188867
 Thermal correction to Enthalpy=                  0.189811
 Thermal correction to Gibbs Free Energy=         0.137638
 Sum of electronic and zero-point Energies=           -839.612289
 Sum of electronic and thermal Energies=              -839.600145
 Sum of electronic and thermal Enthalpies=            -839.599201
 Sum of electronic and thermal Free Energies=         -839.651374

                     E (Thermal)             CV                S
                      KCal/Mol        Cal/Mol-Kelvin    Cal/Mol-Kelvin
 Total                  118.516             42.925            109.807
 Electronic               0.000              0.000              0.000
 Translational            0.889              2.981             41.283
 Rotational               0.889              2.981             30.608
 Vibrational            116.738             36.963             37.916
 Vibration     1          0.595              1.980              5.134
 Vibration     2          0.599              1.967              4.079
 Vibration     3          0.602              1.957              3.686
 Vibration     4          0.603              1.952              3.522
 Vibration     5          0.606              1.943              3.317
 Vibration     6          0.618              1.903              2.681
 Vibration     7          0.634              1.851              2.206
 Vibration     8          0.645              1.819              2.004
 Vibration     9          0.669              1.744              1.653
 Vibration    10          0.693              1.671              1.409
 Vibration    11          0.704              1.639              1.321
 Vibration    12          0.725              1.580              1.177
 Vibration    13          0.769              1.462              0.948
 Vibration    14          0.818              1.339              0.767
 Vibration    15          0.875              1.206              0.610
 Vibration    16          0.931              1.087              0.496
 Vibration    17          0.955              1.038              0.455

 Optimization completed.
    -- Stationary point found.
 Normal termination of Gaussian 09 at Thu Feb  2 15:50:54 2023.
