 Gaussian 09, Revision D.01,
 Gaussian 09:  ES64L-G09RevD.01 24-Apr-2013

 ---------------------------------------------------------------------
 # b3lyp/6-311+g(d,p) geom=connectivity pop=(hirshfeld,chelpg,mbs,npa)
 ---------------------------------------------------------------------

 --------
 Table5_1
 --------
 Symbolic Z-matrix:
 Charge =  0 Multiplicity = 1

                         Standard orientation:
 ---------------------------------------------------------------------
 Center     Atomic      Atomic             Coordinates (Angstroms)
 Number     Number       Type             X           Y           Z
 ---------------------------------------------------------------------
      1          6           0       -0.000135   -0.011414    1.241225
      2          6           0       -0.000135   -1.271461    0.713860
      3          6           0       -0.000135   -1.271461   -0.713860
      4          6           0       -0.000135   -0.011414   -1.241225
      5         16           0        0.000043    1.197912    0.000000
      6          1           0        0.000792    0.282930    2.279281
      7          1           0        0.000481   -2.168981    1.318144
      8          1           0        0.000481   -2.168981   -1.318144
      9          1           0        0.000792    0.282930   -2.279281
 ---------------------------------------------------------------------

 SCF Done:  E(RB3LYP) =  -553.073154250     A.U. after   11 cycles

 The electronic state is 1-A'.
 Alpha  occ. eigenvalues --  -88.88039 -10.20250 -10.20249 -10.18156 -10.18113
 Alpha  occ. eigenvalues --   -7.96658  -5.92938  -5.92566  -5.92280  -0.88553
 Alpha  occ. eigenvalues --   -0.74029  -0.73075  -0.57120  -0.55869  -0.52184
 Alpha  occ. eigenvalues --   -0.42138  -0.40144  -0.39356  -0.38521  -0.35052
 Alpha  occ. eigenvalues --   -0.25945  -0.24584
 Alpha virt. eigenvalues --   -0.02568   0.00662   0.00697   0.02797   0.03197
 Alpha virt. eigenvalues --    0.04015   0.04082   0.05252   0.06248   0.06477
 Alpha virt. eigenvalues --    0.08583   0.08965   0.09930   0.10149   0.12022

 Mulliken charges:
               1
     1  C   -0.127633
     2  C   -0.188843
     3  C   -0.188843
     4  C   -0.127633
     5  S    0.028934
     6  H    0.170693
     7  H    0.131316
     8  H    0.131316
     9  H    0.170693
 Sum of Mulliken charges =   0.00000

 Dipole moment (field-independent basis, Debye):
    X=              0.0028    Y=             -0.5147    Z=              0.0000  Tot=              0.5147
 Quadrupole moment (field-independent basis, Debye-Ang):
   XX=            -40.8782   YY=            -35.0692   ZZ=            -31.9164
   XY=             -0.0015   XZ=              0.0000   YZ=              0.0000

 ESP charges:
               1
     1  C   -0.196665
     2  C   -0.064439
     3  C   -0.064439
     4  C   -0.196665
     5  S    0.024505
     6  H    0.161353
     7  H    0.087497
     8  H    0.087497
     9  H    0.161353
 Sum of ESP charges =   0.00000

 Summary of Natural Population Analysis:

                                       Natural Population
                Natural  -----------------------------------------------
    Atom  No    Charge         Core      Valence    Rydberg      Total
 -----------------------------------------------------------------------
      C    1   -0.39614      1.99912     4.37521    0.02181     6.39614
      C    2   -0.25840      1.99910     4.24061    0.01869     6.25840
      C    3   -0.25840      1.99910     4.24061    0.01869     6.25840
      C    4   -0.39614      1.99912     4.37521    0.02181     6.39614
      S    5    0.41269      9.99895     5.54129    0.04708    15.58731
      H    6    0.22856      0.00000     0.77005    0.00139     0.77144
      H    7    0.21964      0.00000     0.77883    0.00153     0.78036
      H    8    0.21964      0.00000     0.77883    0.00153     0.78036
      H    9    0.22856      0.00000     0.77005    0.00139     0.77144
 =======================================================================
   * Total *    0.00000     17.99538    25.87071    0.13391    44.00000

 Normal termination of Gaussian 09 at Fri Jul 23 17:33:56 2021.
