 Gaussian 09, Revision D.01,
 Gaussian 09:  ES64L-G09RevD.01 24-Apr-2013

 ---------------------------------------------------------------------
 # b3lyp/6-311+g(d,p) geom=connectivity pop=(hirshfeld,chelpg,mbs,npa)
 ---------------------------------------------------------------------

 --------
 Table4_6
 --------
 Symbolic Z-matrix:
 Charge =  0 Multiplicity = 1

                         Standard orientation:
 ---------------------------------------------------------------------
 Center     Atomic      Atomic             Coordinates (Angstroms)
 Number     Number       Type             X           Y           Z
 ---------------------------------------------------------------------
      1          6           0       -3.953485    0.522302    0.000042
      2          6           0       -2.969626    1.510671    0.000280
      3          6           0       -1.623006    1.156971    0.000249
      4          6           0       -1.253813   -0.193201   -0.000017
      5          6           0       -2.244798   -1.181378   -0.000257
      6          6           0       -3.589120   -0.824455   -0.000227
      7          1           0       -5.001534    0.800817    0.000066
      8          1           0       -3.251874    2.557450    0.000489
      9          1           0       -0.855374    1.919152    0.000434
     10          1           0       -1.941650   -2.221042   -0.000462
     11          1           0       -4.352583   -1.594075   -0.000412
     12          6           0        0.176028   -0.636573   -0.000062
     13          8           0        0.511753   -1.801114   -0.000280
     14          8           0        1.023943    0.408069    0.000208
     15          6           0        2.494338    0.231508    0.000040
     16          6           0        2.933520   -0.496970    1.272617
     17          6           0        2.933429   -0.497310   -1.272375
     18          6           0        2.999008    1.674820   -0.000209
     19          1           0        2.554409    0.020234    2.157776
     20          1           0        2.579433   -1.526486    1.285376
     21          1           0        4.025731   -0.502375    1.325662
     22          1           0        2.553680    0.019285   -2.157620
     23          1           0        4.025624   -0.501998   -1.325815
     24          1           0        2.579972   -1.527039   -1.284616
     25          1           0        4.091652    1.688534   -0.000045
     26          1           0        2.646184    2.206609   -0.886751
     27          1           0        2.645917    2.206986    0.885998
 ---------------------------------------------------------------------

 SCF Done:  E(RB3LYP) =  -578.239001040     A.U. after   15 cycles

 The electronic state is 1-A.
 Alpha  occ. eigenvalues --  -19.16243 -19.10740 -10.30398 -10.25003 -10.19414
 Alpha  occ. eigenvalues --  -10.18873 -10.18715 -10.18525 -10.18519 -10.18457
 Alpha  occ. eigenvalues --  -10.16867 -10.16342 -10.16342  -1.10257  -1.02001
 Alpha  occ. eigenvalues --   -0.87107  -0.82190  -0.76919  -0.75907  -0.70188
 Alpha  occ. eigenvalues --   -0.70020  -0.66273  -0.62099  -0.60271  -0.54856
 Alpha  occ. eigenvalues --   -0.52152  -0.49334  -0.47921  -0.47516  -0.46233
 Alpha  occ. eigenvalues --   -0.45328  -0.44177  -0.44090  -0.43413  -0.42021
 Alpha  occ. eigenvalues --   -0.39875  -0.39533  -0.37681  -0.37350  -0.37291
 Alpha  occ. eigenvalues --   -0.36009  -0.35636  -0.35540  -0.33950  -0.30658
 Alpha  occ. eigenvalues --   -0.27703  -0.26774  -0.26646
 Alpha virt. eigenvalues --   -0.05589  -0.02229  -0.00173   0.00749   0.02135
 Alpha virt. eigenvalues --    0.02810   0.02839   0.03238   0.04029   0.04335
 Alpha virt. eigenvalues --    0.05207   0.05479   0.05483   0.05975   0.06123

 Mulliken charges:
               1
     1  C   -0.139418
     2  C   -0.380504
     3  C    0.145898
     4  C    1.132507
     5  C   -0.507578
     6  C   -0.246984
     7  H    0.129538
     8  H    0.128007
     9  H    0.143145
    10  H    0.148115
    11  H    0.130152
    12  C   -0.610008
    13  O   -0.235507
    14  O    0.124016
    15  C   -0.252523
    16  C   -0.319759
    17  C   -0.319944
    18  C   -0.480324
    19  H    0.148423
    20  H    0.184260
    21  H    0.140362
    22  H    0.148431
    23  H    0.140359
    24  H    0.184278
    25  H    0.149422
    26  H    0.157816
    27  H    0.157819
 Sum of Mulliken charges =   0.00000

 Dipole moment (field-independent basis, Debye):
    X=              0.1472    Y=              1.9324    Z=              0.0001  Tot=              1.9380
 Quadrupole moment (field-independent basis, Debye-Ang):
   XX=            -64.8572   YY=            -79.7098   ZZ=            -81.0388
   XY=              1.5153   XZ=              0.0003   YZ=              0.0005

 ESP charges:
               1
     1  C   -0.066172
     2  C   -0.078047
     3  C   -0.066859
     4  C   -0.073037
     5  C   -0.047521
     6  C   -0.088585
     7  H    0.081253
     8  H    0.080433
     9  H    0.087222
    10  H    0.077226
    11  H    0.087008
    12  C    0.692704
    13  O   -0.539648
    14  O   -0.578855
    15  C    0.815940
    16  C   -0.328167
    17  C   -0.328014
    18  C   -0.312644
    19  H    0.057785
    20  H    0.088996
    21  H    0.050950
    22  H    0.057761
    23  H    0.050896
    24  H    0.088971
    25  H    0.047897
    26  H    0.071231
    27  H    0.071276
 Sum of ESP charges =   0.00000

 Summary of Natural Population Analysis:

                                       Natural Population
                Natural  -----------------------------------------------
    Atom  No    Charge         Core      Valence    Rydberg      Total
 -----------------------------------------------------------------------
      C    1   -0.18249      1.99916     4.16531    0.01802     6.18249
      C    2   -0.20839      1.99916     4.19143    0.01781     6.20839
      C    3   -0.16399      1.99909     4.14864    0.01626     6.16399
      C    4   -0.15459      1.99891     4.13720    0.01848     6.15459
      C    5   -0.15707      1.99909     4.14077    0.01720     6.15707
      C    6   -0.20742      1.99916     4.19045    0.01781     6.20742
      H    7    0.20703      0.00000     0.79162    0.00135     0.79297
      H    8    0.20799      0.00000     0.79054    0.00147     0.79201
      H    9    0.22487      0.00000     0.77368    0.00145     0.77513
      H   10    0.23037      0.00000     0.76789    0.00174     0.76963
      H   11    0.20893      0.00000     0.78962    0.00145     0.79107
      C   12    0.80548      1.99927     3.14644    0.04880     5.19452
      O   13   -0.61282      1.99975     6.60284    0.01023     8.61282
      O   14   -0.58952      1.99970     6.57030    0.01952     8.58952
      C   15    0.27305      1.99910     3.70571    0.02214     5.72695
      C   16   -0.60503      1.99923     4.59461    0.01118     6.60503
      C   17   -0.60504      1.99923     4.59462    0.01118     6.60504
      C   18   -0.58168      1.99924     4.57049    0.01195     6.58168
      H   19    0.20672      0.00000     0.79191    0.00137     0.79328
      H   20    0.23056      0.00000     0.76790    0.00153     0.76944
      H   21    0.20619      0.00000     0.79254    0.00127     0.79381
      H   22    0.20673      0.00000     0.79190    0.00137     0.79327
      H   23    0.20618      0.00000     0.79255    0.00127     0.79382
      H   24    0.23058      0.00000     0.76789    0.00153     0.76942
      H   25    0.20541      0.00000     0.79340    0.00119     0.79459
      H   26    0.20897      0.00000     0.78961    0.00142     0.79103
      H   27    0.20898      0.00000     0.78960    0.00142     0.79102
 =======================================================================
   * Total *    0.00000     25.99009    69.74949    0.26042    96.00000

 Normal termination of Gaussian 09 at Fri Jul 23 17:33:59 2021.
