 Gaussian 09, Revision D.01,
 Gaussian 09:  ES64L-G09RevD.01 24-Apr-2013

 ----------------------------------------------------------------------
 # opt freq b3lyp/6-311+g(d,p) geom=connectivity pop=(hirshfeld,chelpg,
 mbs,npa)
 ----------------------------------------------------------------------

 ---------
 Figure2_7
 ---------
 Symbolic Z-matrix:
 Charge =  0 Multiplicity = 1

 SCF Done:  E(RB3LYP) =  -347.050895158     A.U. after   12 cycles
 SCF Done:  E(RB3LYP) =  -347.071747303     A.U. after   11 cycles
 SCF Done:  E(RB3LYP) =  -347.080161987     A.U. after   11 cycles
 SCF Done:  E(RB3LYP) =  -347.082742456     A.U. after   10 cycles
 SCF Done:  E(RB3LYP) =  -347.083892611     A.U. after   10 cycles
 SCF Done:  E(RB3LYP) =  -347.084270602     A.U. after   10 cycles
 SCF Done:  E(RB3LYP) =  -347.084582114     A.U. after   10 cycles
 SCF Done:  E(RB3LYP) =  -347.084838238     A.U. after   11 cycles
 SCF Done:  E(RB3LYP) =  -347.084999660     A.U. after   10 cycles
 SCF Done:  E(RB3LYP) =  -347.085077381     A.U. after   10 cycles
 SCF Done:  E(RB3LYP) =  -347.085122617     A.U. after    9 cycles
 SCF Done:  E(RB3LYP) =  -347.085159123     A.U. after   10 cycles
 SCF Done:  E(RB3LYP) =  -347.085172864     A.U. after   10 cycles
 SCF Done:  E(RB3LYP) =  -347.085176241     A.U. after    9 cycles
 SCF Done:  E(RB3LYP) =  -347.085181087     A.U. after   10 cycles
 SCF Done:  E(RB3LYP) =  -347.085184238     A.U. after    9 cycles
 SCF Done:  E(RB3LYP) =  -347.085184907     A.U. after    8 cycles
 SCF Done:  E(RB3LYP) =  -347.085185096     A.U. after    8 cycles
 SCF Done:  E(RB3LYP) =  -347.085185157     A.U. after    7 cycles
 Optimization completed.
    -- Stationary point found.
 Normal termination of Gaussian 09 at Wed Oct 13 15:55:36 2021.

 ----------------------------------------------------------------------
 #N Geom=AllCheck Guess=TCheck SCRF=Check GenChk RB3LYP/6-311+G(d,p) Fr
 eq
 ----------------------------------------------------------------------

 Structure from the checkpoint file:  "Figure2_7.chk"
 ---------
 Figure2_7
 ---------
 Charge =  0 Multiplicity = 1

                         Standard orientation:
 ---------------------------------------------------------------------
 Center     Atomic      Atomic             Coordinates (Angstroms)
 Number     Number       Type             X           Y           Z
 ---------------------------------------------------------------------
      1          6           0        0.303891   -0.237729    0.442948
      2          8           0       -0.692877   -1.190984    0.041039
      3          6           0       -1.969736   -0.555952    0.061099
      4          6           0       -1.696237    0.874548   -0.399279
      5          6           0       -0.335107    1.166569    0.264804
      6          1           0        0.566313   -0.408280    1.494639
      7          1           0       -2.632222   -1.121095   -0.596215
      8          1           0       -2.387714   -0.571142    1.078758
      9          1           0       -1.611656    0.902430   -1.488718
     10          1           0       -2.475538    1.578464   -0.100148
     11          1           0        0.283254    1.830024   -0.347092
     12          1           0       -0.470873    1.652644    1.233375
     13          6           0        1.547162   -0.494452   -0.406438
     14          1           0        1.332466   -0.261680   -1.457971
     15          1           0        1.808989   -1.551429   -0.343225
     16          1           0        2.550434    1.163805   -0.095114
     17          8           0        2.684966    0.224529    0.064324
 ---------------------------------------------------------------------

 SCF Done:  E(RB3LYP) =  -347.085185157     A.U. after    1 cycles

 The electronic state is 1-A.
 Alpha  occ. eigenvalues --  -19.12940 -19.12658 -10.22380 -10.22078 -10.21739
 Alpha  occ. eigenvalues --  -10.18353 -10.18103  -1.04556  -1.02830  -0.79358
 Alpha  occ. eigenvalues --   -0.76762  -0.67708  -0.60855  -0.58638  -0.53128
 Alpha  occ. eigenvalues --   -0.50290  -0.49444  -0.44937  -0.43763  -0.42273
 Alpha  occ. eigenvalues --   -0.41854  -0.37526  -0.36626  -0.34600  -0.33507
 Alpha  occ. eigenvalues --   -0.32589  -0.29106  -0.26142
 Alpha virt. eigenvalues --   -0.00649   0.00879   0.01690   0.02716   0.03592
 Alpha virt. eigenvalues --    0.04658   0.05327   0.05506   0.06123   0.08053
 Alpha virt. eigenvalues --    0.08768   0.09175   0.09953   0.10476   0.11035

 Mulliken charges:
               1
     1  C   -0.213863
     2  O   -0.165217
     3  C   -0.200829
     4  C   -0.305817
     5  C   -0.224026
     6  H    0.164829
     7  H    0.152933
     8  H    0.134334
     9  H    0.156174
    10  H    0.151275
    11  H    0.126797
    12  H    0.162275
    13  C   -0.173504
    14  H    0.139007
    15  H    0.161210
    16  H    0.233828
    17  O   -0.299407
 Sum of Mulliken charges =   0.00000

 Dipole moment (field-independent basis, Debye):
    X=             -1.9853    Y=              2.3497    Z=             -0.4136  Tot=              3.1038
 Quadrupole moment (field-independent basis, Debye-Ang):
   XX=            -48.0631   YY=            -43.9386   ZZ=            -43.3079
   XY=              1.1857   XZ=             -1.6068   YZ=             -0.2086

  Exact polarizability:  75.796   0.661  64.196   0.886   0.768  59.480
 Approx polarizability:  92.993   1.511  89.656   1.988   1.359  85.988

 ESP charges:
               1
     1  C    0.283996
     2  O   -0.552447
     3  C    0.295023
     4  C   -0.079665
     5  C    0.044997
     6  H    0.007663
     7  H    0.002643
     8  H   -0.004118
     9  H    0.032016
    10  H    0.005138
    11  H   -0.007340
    12  H   -0.017347
    13  C    0.187905
    14  H    0.005440
    15  H    0.077416
    16  H    0.379469
    17  O   -0.660788
 Sum of ESP charges =   0.00000

 Summary of Natural Population Analysis:

                                       Natural Population
                Natural  -----------------------------------------------
    Atom  No    Charge         Core      Valence    Rydberg      Total
 -----------------------------------------------------------------------
      C    1    0.10239      1.99917     3.87422    0.02422     5.89761
      O    2   -0.61214      1.99978     6.58763    0.02473     8.61214
      C    3   -0.02425      1.99925     4.00349    0.02151     6.02425
      C    4   -0.41462      1.99931     4.40129    0.01402     6.41462
      C    5   -0.41611      1.99928     4.40127    0.01556     6.41611
      H    6    0.17758      0.00000     0.81986    0.00256     0.82242
      H    7    0.18790      0.00000     0.81044    0.00166     0.81210
      H    8    0.15708      0.00000     0.84044    0.00248     0.84292
      H    9    0.19931      0.00000     0.79856    0.00213     0.80069
      H   10    0.20837      0.00000     0.78972    0.00191     0.79163
      H   11    0.19702      0.00000     0.80080    0.00218     0.80298
      H   12    0.20541      0.00000     0.79278    0.00181     0.79459
      C   13   -0.03595      1.99916     4.01178    0.02501     6.03595
      H   14    0.15686      0.00000     0.84057    0.00257     0.84314
      H   15    0.19028      0.00000     0.80785    0.00187     0.80972
      H   16    0.45324      0.00000     0.54183    0.00493     0.54676
      O   17   -0.73237      1.99980     6.71905    0.01352     8.73237
 =======================================================================
   * Total *    0.00000     13.99574    41.84159    0.16267    56.00000

                      1                      2                      3
                      A                      A                      A
 Frequencies --     27.7152               122.0098               202.2573
 Red. masses --      2.6682                 2.8950                 2.0704
 Frc consts  --      0.0012                 0.0254                 0.0499
 IR Inten    --      0.8204                 3.3277                 6.1853

                      4                      5                      6
                      A                      A                      A
 Frequencies --    264.0043               298.3866               403.0561
 Red. masses --      1.3984                 1.8561                 3.2966
 Frc consts  --      0.0574                 0.0974                 0.3155
 IR Inten    --     36.6709               102.6468                 0.4022

                      7                      8                      9
                      A                      A                      A
 Frequencies --    433.9807               603.4173               694.2599
 Red. masses --      2.9334                 1.8858                 5.3515
 Frc consts  --      0.3255                 0.4046                 1.5197
 IR Inten    --      2.9241                 1.0798                11.1532

                     10                     11                     12
                      A                      A                      A
 Frequencies --    799.2665               870.6262               888.7573
 Red. masses --      2.0711                 1.5298                 1.9336
 Frc consts  --      0.7795                 0.6832                 0.8999
 IR Inten    --      4.4074                 2.3181                 6.7911

                     13                     14                     15
                      A                      A                      A
 Frequencies --    927.4536               953.1934               995.8140
 Red. masses --      2.6056                 3.6111                 1.3495
 Frc consts  --      1.3205                 1.9331                 0.7885
 IR Inten    --      1.7423                36.1897                10.4103

                     16                     17                     18
                      A                      A                      A
 Frequencies --   1001.6214              1052.1263              1083.7747
 Red. masses --      2.2341                 4.3933                 2.6210
 Frc consts  --      1.3206                 2.8653                 1.8138
 IR Inten    --      5.7764                87.0421                49.9010

                     19                     20                     21
                      A                      A                      A
 Frequencies --   1102.6381              1131.7273              1190.5057
 Red. masses --      2.9262                 1.7790                 1.4090
 Frc consts  --      2.0961                 1.3425                 1.1766
 IR Inten    --    105.0990                 5.8881                13.4492

                     22                     23                     24
                      A                      A                      A
 Frequencies --   1203.3165              1227.9919              1266.4593
 Red. masses --      1.3881                 1.3651                 1.2055
 Frc consts  --      1.1842                 1.2128                 1.1392
 IR Inten    --     12.1219                 8.2049                 7.2491

                     25                     26                     27
                      A                      A                      A
 Frequencies --   1311.2669              1317.2662              1331.4508
 Red. masses --      1.1990                 1.3199                 1.3103
 Frc consts  --      1.2147                 1.3494                 1.3685
 IR Inten    --      1.1683                 2.4866                 1.9906

                     28                     29                     30
                      A                      A                      A
 Frequencies --   1357.8593              1377.4587              1389.4429
 Red. masses --      1.3073                 1.2707                 1.2953
 Frc consts  --      1.4202                 1.4206                 1.4733
 IR Inten    --      4.6304                 7.7356                13.5687

                     31                     32                     33
                      A                      A                      A
 Frequencies --   1416.0187              1488.9532              1498.5632
 Red. masses --      1.4041                 1.0848                 1.0888
 Frc consts  --      1.6587                 1.4170                 1.4406
 IR Inten    --     12.0403                 3.6859                 4.2103

                     34                     35                     36
                      A                      A                      A
 Frequencies --   1508.0108              1520.9388              2971.6882
 Red. masses --      1.0884                 1.1019                 1.0725
 Frc consts  --      1.4583                 1.5019                 5.5804
 IR Inten    --      4.6507                 0.4205                76.3139

                     37                     38                     39
                      A                      A                      A
 Frequencies --   2995.1380              3010.1926              3038.9768
 Red. masses --      1.0747                 1.0800                 1.0626
 Frc consts  --      5.6801                 5.7656                 5.7819
 IR Inten    --      3.8377                86.6099                31.5720

                     40                     41                     42
                      A                      A                      A
 Frequencies --   3050.2280              3077.6471              3093.0760
 Red. masses --      1.0627                 1.1015                 1.0924
 Frc consts  --      5.8252                 6.1472                 6.1575
 IR Inten    --     25.4726                14.8180                31.3998

                     43                     44                     45
                      A                      A                      A
 Frequencies --   3101.4871              3104.4185              3835.4282
 Red. masses --      1.1036                 1.0964                 1.0664
 Frc consts  --      6.2544                 6.2255                 9.2429
 IR Inten    --     52.7914                21.2645                20.1771

 - Thermochemistry -
 -------------------
 Temperature   298.150 Kelvin.  Pressure   1.00000 Atm.
 Atom     1 has atomic number  6 and mass  12.00000

 Molecular mass:   102.06808 amu.
 Principal axes and moments of inertia in atomic units:
                           1         2         3
     Eigenvalues --   315.909501021.857761215.12036
           X            0.99995  -0.00908  -0.00388
           Y            0.00909   0.99996   0.00246
           Z            0.00385  -0.00250   0.99999
 This molecule is an asymmetric top.
 Rotational symmetry number  1.
 Rotational temperatures (Kelvin)      0.27417     0.08476     0.07128
 Rotational constants (GHZ):           5.71284     1.76614     1.48524
 Zero-point vibrational energy     392015.5 (Joules/Mol)
                                   93.69395 (Kcal/Mol)
 Warning -- explicit consideration of   8 degrees of freedom as
           vibrations may cause significant error
 Vibrational temperatures:     39.88   175.54   291.00   379.84   429.31
          (Kelvin)            579.91   624.40   868.18   998.88  1149.96
                             1252.64  1278.72  1334.40  1371.43  1432.75
                             1441.11  1513.77  1559.31  1586.45  1628.30
                             1712.87  1731.30  1766.80  1822.15  1886.62
                             1895.25  1915.66  1953.65  1981.85  1999.10
                             2037.33  2142.27  2156.10  2169.69  2188.29
                             4275.59  4309.33  4330.99  4372.40  4388.59
                             4428.04  4450.24  4462.34  4466.56  5518.32

 Zero-point correction=                           0.149311 (Hartree/Particle)
 Thermal correction to Energy=                    0.156632
 Thermal correction to Enthalpy=                  0.157576
 Thermal correction to Gibbs Free Energy=         0.116918
 Sum of electronic and zero-point Energies=           -346.935874
 Sum of electronic and thermal Energies=              -346.928553
 Sum of electronic and thermal Enthalpies=            -346.927609
 Sum of electronic and thermal Free Energies=         -346.968267

                     E (Thermal)             CV                S
                      KCal/Mol        Cal/Mol-Kelvin    Cal/Mol-Kelvin
 Total                   98.288             26.290             85.572
 Electronic               0.000              0.000              0.000
 Translational            0.889              2.981             39.779
 Rotational               0.889              2.981             27.464
 Vibrational             96.511             20.328             18.329
 Vibration     1          0.593              1.984              5.987
 Vibration     2          0.610              1.931              3.068
 Vibration     3          0.639              1.837              2.112
 Vibration     4          0.671              1.739              1.635
 Vibration     5          0.691              1.677              1.426
 Vibration     6          0.768              1.464              0.951
 Vibration     7          0.795              1.396              0.846
 Vibration     8          0.962              1.025              0.444

 Optimization completed.
    -- Stationary point found.
 Normal termination of Gaussian 09 at Wed Oct 13 15:56:43 2021.
