 Gaussian 09, Revision D.01,
 Gaussian 09:  ES64L-G09RevD.01 24-Apr-2013

 ----------------------------------------------------------------------
 # opt freq=noraman b3lyp/6-311+g(d,p) pop=(npa,hirshfeld,chelpg,mbs) g
 eom=connectivity
 ----------------------------------------------------------------------

 -------------------
 Title Card Required
 -------------------
 Symbolic Z-matrix:
 Charge =  0 Multiplicity = 2

 SCF Done:  E(UB3LYP) =  -547.616521642     A.U. after   15 cycles
 SCF Done:  E(UB3LYP) =  -547.646575449     A.U. after   12 cycles
 SCF Done:  E(UB3LYP) =  -547.659670744     A.U. after   13 cycles
 SCF Done:  E(UB3LYP) =  -547.663098802     A.U. after   12 cycles
 SCF Done:  E(UB3LYP) =  -547.665312543     A.U. after   11 cycles
 SCF Done:  E(UB3LYP) =  -547.664825390     A.U. after   14 cycles
 SCF Done:  E(UB3LYP) =  -547.666923719     A.U. after   10 cycles
 SCF Done:  E(UB3LYP) =  -547.666877116     A.U. after   12 cycles
 SCF Done:  E(UB3LYP) =  -547.667319816     A.U. after   11 cycles
 SCF Done:  E(UB3LYP) =  -547.667332642     A.U. after   11 cycles
 SCF Done:  E(UB3LYP) =  -547.667337896     A.U. after   10 cycles
 SCF Done:  E(UB3LYP) =  -547.667342903     A.U. after   10 cycles
 SCF Done:  E(UB3LYP) =  -547.667353909     A.U. after   10 cycles
 SCF Done:  E(UB3LYP) =  -547.667358447     A.U. after   10 cycles
 SCF Done:  E(UB3LYP) =  -547.667359118     A.U. after    9 cycles
 SCF Done:  E(UB3LYP) =  -547.667358766     A.U. after   10 cycles
 SCF Done:  E(UB3LYP) =  -547.667359271     A.U. after    9 cycles
 SCF Done:  E(UB3LYP) =  -547.667359337     A.U. after    8 cycles
 SCF Done:  E(UB3LYP) =  -547.667359343     A.U. after    8 cycles
 Optimization completed.
    -- Stationary point found.
 Normal termination of Gaussian 09 at Thu May 23 13:17:08 2024.

 ----------------------------------------------------------------------
 #N Geom=AllCheck Guess=TCheck SCRF=Check GenChk UB3LYP/6-311+G(d,p) Fr
 eq
 ----------------------------------------------------------------------

 Structure from the checkpoint file:  "50.chk"
 -------------------
 Title Card Required
 -------------------
 Charge =  0 Multiplicity = 2

                         Standard orientation:
 ---------------------------------------------------------------------
 Center     Atomic      Atomic             Coordinates (Angstroms)
 Number     Number       Type             X           Y           Z
 ---------------------------------------------------------------------
      1          6           0       -0.720702    0.071892   -0.403892
      2          6           0        0.565647   -0.665424   -0.236249
      3          1           0        0.528891   -1.305103    0.654468
      4          1           0        0.735365   -1.354384   -1.081994
      5          1           0       -0.711908    1.019498   -0.938128
      6          6           0       -2.035916   -0.586503   -0.150494
      7          1           0       -2.208578   -1.379523   -0.901869
      8          1           0       -2.000203   -1.120398    0.810838
      9          6           0       -3.235283    0.371101   -0.163162
     10          1           0       -3.084704    1.143964    0.600310
     11          1           0       -3.265349    0.894720   -1.127103
     12          6           0       -4.577390   -0.328173    0.075711
     13          1           0       -4.545688   -0.854829    1.038585
     14          6           0       -5.778034    0.624765    0.063142
     15          1           0       -5.810301    1.151084   -0.898696
     16          1           0       -5.632531    1.398158    0.827223
     17          6           0       -7.115288   -0.082591    0.301599
     18          1           0       -7.949817    0.624052    0.286829
     19          1           0       -7.306034   -0.837562   -0.467758
     20          1           0       -7.127258   -0.589953    1.271511
     21          1           0       -4.724146   -1.102973   -0.688297
     22          6           0        1.780610    0.253684   -0.137257
     23          1           0        1.820692    0.905767   -1.020598
     24          1           0        1.686519    0.895571    0.748067
     25          6           0        4.227376    0.064086    0.109513
     26          6           0        5.203614   -1.114952    0.102120
     27          1           0        5.132349   -1.658009   -0.843033
     28          1           0        4.963538   -1.807373    0.912138
     29          8           0        2.937291   -0.566830   -0.058059
     30          1           0        6.232435   -0.768783    0.230695
     31          6           0        4.533767    1.012955   -1.059269
     32          1           0        4.418022    0.490834   -2.012640
     33          1           0        3.878467    1.887500   -1.061464
     34          1           0        5.563014    1.375221   -0.990033
     35          6           0        4.303975    0.805130    1.453509
     36          1           0        4.033412    0.132905    2.271724
     37          1           0        5.321251    1.166019    1.628052
     38          1           0        3.639978    1.672417    1.484025
 ---------------------------------------------------------------------

 SCF Done:  E(UB3LYP) =  -547.667359343     A.U. after    1 cycles

 The electronic state is 2-A.
 Alpha  occ. eigenvalues --  -19.11482 -10.23028 -10.21129 -10.17395 -10.16864
 Alpha  occ. eigenvalues --  -10.16662 -10.16441 -10.16402 -10.16274 -10.16019
 Alpha  occ. eigenvalues --  -10.15957 -10.15727 -10.15478  -1.02562  -0.81745
 Alpha  occ. eigenvalues --   -0.80471  -0.78326  -0.74829  -0.70114  -0.69408
 Alpha  occ. eigenvalues --   -0.68891  -0.64242  -0.60125  -0.57921  -0.57072
 Alpha  occ. eigenvalues --   -0.55026  -0.48818  -0.48287  -0.47586  -0.45849
 Alpha  occ. eigenvalues --   -0.44862  -0.43920  -0.43449  -0.42771  -0.41228
 Alpha  occ. eigenvalues --   -0.40449  -0.39529  -0.39484  -0.38700  -0.37370
 Alpha  occ. eigenvalues --   -0.37062  -0.36754  -0.36200  -0.34842  -0.34568
 Alpha  occ. eigenvalues --   -0.34239  -0.33771  -0.33086  -0.32449  -0.31647
 Alpha  occ. eigenvalues --   -0.30085  -0.25705  -0.18798
 Alpha virt. eigenvalues --    0.00162   0.00951   0.01518   0.01889   0.02394
 Alpha virt. eigenvalues --    0.02774   0.03176   0.03364   0.04130   0.04729
 Alpha virt. eigenvalues --    0.05091   0.05373   0.05760   0.06094   0.06295

  Beta  occ. eigenvalues --  -19.11473 -10.23029 -10.21102 -10.16947 -10.16742
  Beta  occ. eigenvalues --  -10.16442 -10.16387 -10.16274 -10.16020 -10.16019
  Beta  occ. eigenvalues --  -10.15956 -10.15727 -10.15478  -1.02541  -0.81209
  Beta  occ. eigenvalues --   -0.80446  -0.77625  -0.74706  -0.69790  -0.69406
  Beta  occ. eigenvalues --   -0.68795  -0.63788  -0.59999  -0.57832  -0.56123
  Beta  occ. eigenvalues --   -0.54419  -0.48733  -0.47950  -0.47484  -0.45747
  Beta  occ. eigenvalues --   -0.44587  -0.43696  -0.43281  -0.42519  -0.41133
  Beta  occ. eigenvalues --   -0.40106  -0.39434  -0.39181  -0.38366  -0.37137
  Beta  occ. eigenvalues --   -0.36999  -0.36599  -0.35984  -0.34637  -0.34461
  Beta  occ. eigenvalues --   -0.34085  -0.33581  -0.32994  -0.32393  -0.31489
  Beta  occ. eigenvalues --   -0.30052  -0.25647
  Beta virt. eigenvalues --   -0.04969   0.00182   0.00960   0.01569   0.01932
  Beta virt. eigenvalues --    0.02439   0.02767   0.03175   0.03364   0.04152
  Beta virt. eigenvalues --    0.04772   0.05122   0.05393   0.05818   0.06113

 Mulliken charges and spin densities:
               1          2
     1  C    0.724169   1.063961
     2  C   -0.642566  -0.100199
     3  H    0.148333   0.019011
     4  H    0.162931   0.060547
     5  H    0.130305  -0.052322
     6  C   -0.772963  -0.083103
     7  H    0.157051   0.059200
     8  H    0.151482   0.026414
     9  C   -0.074139   0.002332
    10  H    0.149547   0.000715
    11  H    0.141921  -0.000748
    12  C   -0.345549   0.000646
    13  H    0.138573   0.000283
    14  C   -0.229450  -0.001424
    15  H    0.134755   0.000087
    16  H    0.135567   0.000138
    17  C   -0.622198  -0.000380
    18  H    0.137108  -0.000013
    19  H    0.132399   0.000019
    20  H    0.132454  -0.000007
    21  H    0.136739   0.000203
    22  C   -0.245848   0.005529
    23  H    0.125487  -0.001105
    24  H    0.136350   0.000126
    25  C   -0.156645  -0.002999
    26  C   -0.409768   0.000126
    27  H    0.153411   0.000031
    28  H    0.152253   0.000007
    29  O   -0.022992   0.002278
    30  H    0.136719   0.000002
    31  C   -0.379027   0.001314
    32  H    0.151751   0.000003
    33  H    0.136517   0.000009
    34  H    0.139315  -0.000022
    35  C   -0.370851  -0.000616
    36  H    0.152829  -0.000002
    37  H    0.138554  -0.000021
    38  H    0.135477  -0.000022
 Sum of Mulliken charges =   0.00000   1.00000

 Dipole moment (field-independent basis, Debye):
    X=              0.1641    Y=              1.0214    Z=             -0.0251  Tot=              1.0348
 Quadrupole moment (field-independent basis, Debye-Ang):
   XX=            -83.2646   YY=            -88.5228   ZZ=            -86.5336
   XY=              3.5311   XZ=              0.7469   YZ=             -0.3448

  Exact polarizability: 193.698  -0.302 137.512  -0.598  -0.703 130.653
 Approx polarizability: 205.922   0.263 201.799   0.416  -0.597 193.667

 ESP charges:
               1
     1  C   -0.266886
     2  C    0.088045
     3  H    0.019656
     4  H    0.014640
     5  H    0.046836
     6  C    0.202534
     7  H   -0.028749
     8  H   -0.030285
     9  C   -0.032945
    10  H   -0.018488
    11  H    0.016163
    12  C   -0.023655
    13  H   -0.000612
    14  C    0.236676
    15  H   -0.056370
    16  H   -0.046460
    17  C   -0.211082
    18  H    0.041163
    19  H    0.042105
    20  H    0.037291
    21  H   -0.012298
    22  C    0.313066
    23  H   -0.003190
    24  H   -0.057348
    25  C    0.835866
    26  C   -0.414927
    27  H    0.091830
    28  H    0.090461
    29  O   -0.660837
    30  H    0.075848
    31  C   -0.347906
    32  H    0.079764
    33  H    0.053383
    34  H    0.058763
    35  C   -0.308767
    36  H    0.076505
    37  H    0.036305
    38  H    0.063905
 Sum of ESP charges =   0.00000

 Summary of Natural Population Analysis:

                                       Natural Population
                Natural  -----------------------------------------------
    Atom  No    Charge         Core      Valence    Rydberg      Total
 -----------------------------------------------------------------------
      C    1    0.42554      0.99964     1.56808    0.00674     2.57446
      C    2   -0.25353      0.99963     2.24627    0.00764     3.25353
      H    3    0.11239      0.00000     0.38648    0.00114     0.38761
      H    4    0.13517      0.00000     0.36378    0.00104     0.36483
      H    5    0.06971      0.00000     0.42926    0.00103     0.43029
      C    6   -0.24699      0.99963     2.23981    0.00755     3.24699
      H    7    0.12890      0.00000     0.37005    0.00105     0.37110
      H    8    0.11246      0.00000     0.38637    0.00116     0.38754
      C    9   -0.18281      0.99964     2.17584    0.00733     3.18281
      H   10    0.09587      0.00000     0.40304    0.00109     0.40413
      H   11    0.09423      0.00000     0.40461    0.00116     0.40577
      C   12   -0.18995      0.99964     2.18310    0.00721     3.18995
      H   13    0.09425      0.00000     0.40459    0.00116     0.40575
      C   14   -0.19132      0.99966     2.18509    0.00657     3.19132
      H   15    0.09386      0.00000     0.40500    0.00114     0.40614
      H   16    0.09405      0.00000     0.40480    0.00114     0.40595
      C   17   -0.28626      0.99969     2.28200    0.00458     3.28626
      H   18    0.09965      0.00000     0.39974    0.00061     0.40035
      H   19    0.09644      0.00000     0.40270    0.00085     0.40356
      H   20    0.09646      0.00000     0.40268    0.00086     0.40354
      H   21    0.09412      0.00000     0.40473    0.00115     0.40588
      C   22   -0.00073      0.99958     1.99077    0.01038     3.00073
      H   23    0.07812      0.00000     0.42062    0.00125     0.42188
      H   24    0.08006      0.00000     0.41874    0.00120     0.41994
      C   25    0.13399      0.99957     1.85489    0.01154     2.86601
      C   26   -0.28860      0.99962     2.28296    0.00601     3.28860
      H   27    0.10424      0.00000     0.39500    0.00076     0.39576
      H   28    0.10446      0.00000     0.39479    0.00075     0.39554
      O   29   -0.31446      0.99986     3.30274    0.01185     4.31446
      H   30    0.09859      0.00000     0.40082    0.00060     0.40141
      C   31   -0.30145      0.99963     2.29636    0.00546     3.30145
      H   32    0.10433      0.00000     0.39492    0.00075     0.39567
      H   33    0.10020      0.00000     0.39914    0.00066     0.39980
      H   34    0.10296      0.00000     0.39638    0.00067     0.39704
      C   35   -0.30098      0.99963     2.29581    0.00554     3.30098
      H   36    0.10447      0.00000     0.39476    0.00077     0.39553
      H   37    0.10256      0.00000     0.39677    0.00067     0.39744
      H   38    0.09998      0.00000     0.39931    0.00070     0.40002
 =======================================================================
   * Total *    0.50000     12.99542    38.88282    0.12176    52.00000

                      1                      2                      3
                      A                      A                      A
 Frequencies --     19.3845                32.1380                41.6566
 Red. masses --      3.5150                 2.3245                 2.1561
 Frc consts  --      0.0008                 0.0014                 0.0022
 IR Inten    --      0.0338                 0.0232                 0.0923

                      4                      5                      6
                      A                      A                      A
 Frequencies --     53.2353                60.9882                91.5849
 Red. masses --      1.8183                 3.0792                 2.3650
 Frc consts  --      0.0030                 0.0067                 0.0117
 IR Inten    --      0.2599                 0.6620                 0.3823

                      7                      8                      9
                      A                      A                      A
 Frequencies --    111.8695               113.1312               139.7359
 Red. masses --      1.8523                 2.9705                 2.1369
 Frc consts  --      0.0137                 0.0224                 0.0246
 IR Inten    --      0.4022                 0.4630                 2.5735

                     10                     11                     12
                      A                      A                      A
 Frequencies --    146.6124               186.1930               207.4509
 Red. masses --      2.0866                 3.9276                 1.3685
 Frc consts  --      0.0264                 0.0802                 0.0347
 IR Inten    --      0.2260                 0.1871                 0.3600

                     13                     14                     15
                      A                      A                      A
 Frequencies --    215.0796               242.1119               258.2568
 Red. masses --      1.9610                 1.1223                 1.0448
 Frc consts  --      0.0534                 0.0388                 0.0411
 IR Inten    --      0.0846                 0.0010                 0.0291

                     16                     17                     18
                      A                      A                      A
 Frequencies --    267.4149               301.6213               340.6124
 Red. masses --      1.0813                 2.7138                 2.4376
 Frc consts  --      0.0456                 0.1455                 0.1666
 IR Inten    --      0.1316                 0.4943                 1.4224

                     19                     20                     21
                      A                      A                      A
 Frequencies --    354.6530               361.2516               396.6446
 Red. masses --      3.0369                 2.5432                 1.3837
 Frc consts  --      0.2251                 0.1955                 0.1283
 IR Inten    --      0.3765                 0.8163                23.2096

                     22                     23                     24
                      A                      A                      A
 Frequencies --    438.2713               455.2958               460.7166
 Red. masses --      2.6797                 2.7669                 2.7579
 Frc consts  --      0.3033                 0.3379                 0.3449
 IR Inten    --      0.8089                 5.6275                 0.1831

                     25                     26                     27
                      A                      A                      A
 Frequencies --    510.0345               531.0833               730.1621
 Red. masses --      3.0198                 2.8488                 1.0775
 Frc consts  --      0.4628                 0.4734                 0.3385
 IR Inten    --      1.1264                 0.9655                 2.4261

                     28                     29                     30
                      A                      A                      A
 Frequencies --    749.7064               750.5619               787.2088
 Red. masses --      1.1984                 3.1655                 1.1931
 Frc consts  --      0.3969                 1.0507                 0.4356
 IR Inten    --      0.9676                 2.8627                 0.7346

                     31                     32                     33
                      A                      A                      A
 Frequencies --    838.7884               878.7853               898.7326
 Red. masses --      1.2424                 3.0590                 1.9833
 Frc consts  --      0.5150                 1.3918                 0.9438
 IR Inten    --      0.2778                25.7130                 1.8441

                     34                     35                     36
                      A                      A                      A
 Frequencies --    908.0860               921.9303               956.4698
 Red. masses --      1.6778                 1.6251                 1.2030
 Frc consts  --      0.8152                 0.8138                 0.6484
 IR Inten    --      0.1827                 0.2094                 0.0178

                     37                     38                     39
                      A                      A                      A
 Frequencies --    962.1919               998.5293              1011.6602
 Red. masses --      1.2418                 4.0512                 2.2114
 Frc consts  --      0.6774                 2.3799                 1.3335
 IR Inten    --      1.2586                 0.0805                 2.3495

                     40                     41                     42
                      A                      A                      A
 Frequencies --   1030.8463              1036.2212              1044.1291
 Red. masses --      1.7988                 1.4524                 1.8078
 Frc consts  --      1.1262                 0.9189                 1.1612
 IR Inten    --      7.1725                 3.8012                 4.4516

                     43                     44                     45
                      A                      A                      A
 Frequencies --   1054.8732              1067.4868              1079.1985
 Red. masses --      2.0883                 2.2492                 2.2871
 Frc consts  --      1.3691                 1.5101                 1.5694
 IR Inten    --      1.7386                 1.4467                34.4424

                     46                     47                     48
                      A                      A                      A
 Frequencies --   1092.9750              1110.0574              1134.2162
 Red. masses --      3.9176                 1.5492                 2.1011
 Frc consts  --      2.7573                 1.1248                 1.5925
 IR Inten    --    147.1408                 0.5827                 2.7909

                     49                     50                     51
                      A                      A                      A
 Frequencies --   1149.3912              1212.9318              1217.2767
 Red. masses --      2.8336                 1.3780                 2.1258
 Frc consts  --      2.2056                 1.1945                 1.8559
 IR Inten    --      4.7054                16.9744               100.1570

                     52                     53                     54
                      A                      A                      A
 Frequencies --   1224.9818              1233.6703              1250.1405
 Red. masses --      1.4698                 1.2888                 2.6926
 Frc consts  --      1.2995                 1.1556                 2.4793
 IR Inten    --      1.6158                 6.4067                18.8630

                     55                     56                     57
                      A                      A                      A
 Frequencies --   1273.6744              1283.8718              1287.6321
 Red. masses --      2.4185                 1.3232                 1.3113
 Frc consts  --      2.3116                 1.2851                 1.2810
 IR Inten    --     16.1799                 1.7569                 2.0935

                     58                     59                     60
                      A                      A                      A
 Frequencies --   1306.2616              1325.3183              1331.3901
 Red. masses --      1.1081                 1.1119                 1.0701
 Frc consts  --      1.1140                 1.1507                 1.1176
 IR Inten    --      0.5792                 0.0459                 0.4524

                     61                     62                     63
                      A                      A                      A
 Frequencies --   1336.5614              1376.7176              1393.5718
 Red. masses --      1.3386                 1.4100                 1.2703
 Frc consts  --      1.4089                 1.5745                 1.4535
 IR Inten    --      0.1238                 0.6758                18.9951

                     64                     65                     66
                      A                      A                      A
 Frequencies --   1394.5318              1399.6817              1412.6947
 Red. masses --      1.2893                 1.5864                 1.3551
 Frc consts  --      1.4773                 1.8312                 1.5934
 IR Inten    --     16.8734                 2.2742                 0.4694

                     67                     68                     69
                      A                      A                      A
 Frequencies --   1414.5311              1422.1341              1428.9524
 Red. masses --      1.3514                 1.2988                 1.6713
 Frc consts  --      1.5931                 1.5477                 2.0107
 IR Inten    --      3.5029                 8.6882                12.4337

                     70                     71                     72
                      A                      A                      A
 Frequencies --   1463.6613              1472.9528              1475.6577
 Red. masses --      1.0766                 1.0478                 1.0749
 Frc consts  --      1.3589                 1.3394                 1.3791
 IR Inten    --      0.2129                 0.4921                 4.0349

                     73                     74                     75
                      A                      A                      A
 Frequencies --   1486.0025              1487.5863              1489.0570
 Red. masses --      1.0468                 1.0724                 1.0470
 Frc consts  --      1.3619                 1.3982                 1.3678
 IR Inten    --      1.0027                 0.0426                 0.3590

                     76                     77                     78
                      A                      A                      A
 Frequencies --   1491.1978              1499.2125              1500.6165
 Red. masses --      1.0661                 1.0401                 1.0584
 Frc consts  --      1.3967                 1.3773                 1.4042
 IR Inten    --      0.8863                 8.0879                 2.5115

                     79                     80                     81
                      A                      A                      A
 Frequencies --   1501.2879              1501.9883              1513.0292
 Red. masses --      1.0583                 1.0738                 1.0930
 Frc consts  --      1.4054                 1.4272                 1.4742
 IR Inten    --      5.5430                 1.0130                 8.5980

                     82                     83                     84
                      A                      A                      A
 Frequencies --   1516.6256              1527.8541              2905.9696
 Red. masses --      1.0604                 1.0781                 1.0735
 Frc consts  --      1.4370                 1.4828                 5.3413
 IR Inten    --      4.0893                11.8576                32.7397

                     85                     86                     87
                      A                      A                      A
 Frequencies --   2930.0503              2977.1702              2980.5672
 Red. masses --      1.0722                 1.0807                 1.0561
 Frc consts  --      5.4234                 5.6439                 5.5276
 IR Inten    --     26.9737                15.9218                29.6869

                     88                     89                     90
                      A                      A                      A
 Frequencies --   2992.8072              3001.3542              3008.4944
 Red. masses --      1.0578                 1.0593                 1.0890
 Frc consts  --      5.5825                 5.6223                 5.8073
 IR Inten    --      6.2232                 1.8963                 6.7724

                     91                     92                     93
                      A                      A                      A
 Frequencies --   3009.5501              3011.7876              3017.6706
 Red. masses --      1.0665                 1.0933                 1.0357
 Frc consts  --      5.6913                 5.8432                 5.5566
 IR Inten    --     78.3619                13.2161                49.2041

                     94                     95                     96
                      A                      A                      A
 Frequencies --   3024.7909              3029.6372              3030.7275
 Red. masses --      1.0655                 1.0392                 1.0924
 Frc consts  --      5.7438                 5.6199                 5.9118
 IR Inten    --      4.3117                35.3402                14.0666

                     97                     98                     99
                      A                      A                      A
 Frequencies --   3030.9597              3037.5361              3049.0201
 Red. masses --      1.0704                 1.0354                 1.1051
 Frc consts  --      5.7939                 5.6288                 6.0533
 IR Inten    --     51.1385                10.5585                75.7444

                    100                    101                    102
                      A                      A                      A
 Frequencies --   3078.1990              3082.5896              3090.8316
 Red. masses --      1.1024                 1.1009                 1.1013
 Frc consts  --      6.1546                 6.1636                 6.1987
 IR Inten    --     72.0365                45.9811                 0.6572

                    103                    104                    105
                      A                      A                      A
 Frequencies --   3095.0669              3098.1673              3100.4210
 Red. masses --      1.1014                 1.1031                 1.1020
 Frc consts  --      6.2164                 6.2386                 6.2414
 IR Inten    --     30.3489                10.8337                35.5313

                    106                    107                    108
                      A                      A                      A
 Frequencies --   3106.2502              3107.1104              3130.2779
 Red. masses --      1.1018                 1.1022                 1.0866
 Frc consts  --      6.2634                 6.2696                 6.2730
 IR Inten    --     60.0557                35.6019                23.6473

 - Thermochemistry -
 -------------------
 Temperature   298.150 Kelvin.  Pressure   1.00000 Atm.
 Atom     1 has atomic number  6 and mass  12.00000

 Molecular mass:   185.19054 amu.
 Principal axes and moments of inertia in atomic units:
                           1         2         3
     Eigenvalues --   596.23044********************
           X            1.00000   0.00229  -0.00032
           Y           -0.00230   0.99899  -0.04477
           Z            0.00022   0.04477   0.99900
 This molecule is an asymmetric top.
 Rotational symmetry number  1.
 Warning -- assumption of classical behavior for rotation
           may cause significant error
 Rotational temperatures (Kelvin)      0.14527     0.00750     0.00746
 Rotational constants (GHZ):           3.02692     0.15633     0.15541
 Zero-point vibrational energy     908620.6 (Joules/Mol)
                                  217.16553 (Kcal/Mol)
 Warning -- explicit consideration of  26 degrees of freedom as
           vibrations may cause significant error
 Vibrational temperatures:     27.89    46.24    59.93    76.59    87.75
          (Kelvin)            131.77   160.96   162.77   201.05   210.94
                              267.89   298.48   309.45   348.34   371.57
                              384.75   433.97   490.06   510.27   519.76
                              570.68   630.57   655.07   662.87   733.82
                              764.11  1050.54  1078.66  1079.89  1132.62
                             1206.83  1264.37  1293.07  1306.53  1326.45
                             1376.15  1384.38  1436.66  1455.55  1483.16
                             1490.89  1502.27  1517.73  1535.87  1552.72
                             1572.55  1597.12  1631.88  1653.72  1745.14
                             1751.39  1762.47  1774.97  1798.67  1832.53
                             1847.20  1852.61  1879.42  1906.84  1915.57
                             1923.01  1980.79  2005.04  2006.42  2013.83
                             2032.55  2035.19  2046.13  2055.94  2105.88
                             2119.25  2123.14  2138.02  2140.30  2142.42
                             2145.50  2157.03  2159.05  2160.02  2161.02
                             2176.91  2182.08  2198.24  4181.04  4215.68
                             4283.48  4288.37  4305.98  4318.27  4328.55
                             4330.07  4333.29  4341.75  4351.99  4358.97
                             4360.54  4360.87  4370.33  4386.85  4428.84
                             4435.15  4447.01  4453.11  4457.57  4460.81
                             4469.20  4470.43  4503.77

 Zero-point correction=                           0.346075 (Hartree/Particle)
 Thermal correction to Energy=                    0.364143
 Thermal correction to Enthalpy=                  0.365087
 Thermal correction to Gibbs Free Energy=         0.297468
 Sum of electronic and zero-point Energies=           -547.321284
 Sum of electronic and thermal Energies=              -547.303217
 Sum of electronic and thermal Enthalpies=            -547.302272
 Sum of electronic and thermal Free Energies=         -547.369892

                     E (Thermal)             CV                S
                      KCal/Mol        Cal/Mol-Kelvin    Cal/Mol-Kelvin
 Total                  228.503             64.564            142.317
 Electronic               0.000              0.000              1.377
 Translational            0.889              2.981             41.555
 Rotational               0.889              2.981             32.747
 Vibrational            226.726             58.602             66.638
 Vibration     1          0.593              1.986              6.696
 Vibration     2          0.594              1.983              5.693
 Vibration     3          0.594              1.981              5.179
 Vibration     4          0.596              1.976              4.693
 Vibration     5          0.597              1.973              4.425
 Vibration     6          0.602              1.955              3.626
 Vibration     7          0.607              1.940              3.236
 Vibration     8          0.607              1.939              3.214
 Vibration     9          0.615              1.914              2.807
 Vibration    10          0.617              1.906              2.716
 Vibration    11          0.632              1.859              2.265
 Vibration    12          0.641              1.829              2.066
 Vibration    13          0.645              1.818              2.000
 Vibration    14          0.658              1.776              1.787
 Vibration    15          0.667              1.749              1.674
 Vibration    16          0.673              1.733              1.613
 Vibration    17          0.694              1.671              1.408
 Vibration    18          0.720              1.594              1.209
 Vibration    19          0.731              1.566              1.145
 Vibration    20          0.735              1.552              1.117
 Vibration    21          0.763              1.477              0.975
 Vibration    22          0.798              1.387              0.832
 Vibration    23          0.814              1.349              0.780
 Vibration    24          0.819              1.337              0.764
 Vibration    25          0.865              1.228              0.634
 Vibration    26          0.886              1.181              0.585

 Optimization completed.
    -- Stationary point found.
 Normal termination of Gaussian 09 at Thu May 23 13:34:45 2024.
