 Gaussian 09, Revision D.01,
 Gaussian 09:  ES64L-G09RevD.01 24-Apr-2013

 ----------------------------------------------------------------------
 # opt freq b3lyp/6-311+g(d,p) geom=connectivity pop=(hirshfeld,chelpg,
 mbs,npa)
 ----------------------------------------------------------------------

 ---------
 Figure2_2
 ---------
 Symbolic Z-matrix:
 Charge =  0 Multiplicity = 1

 SCF Done:  E(RB3LYP) =  -448.575509600     A.U. after   12 cycles
 SCF Done:  E(RB3LYP) =  -448.590503952     A.U. after   11 cycles
 SCF Done:  E(RB3LYP) =  -448.593800079     A.U. after   10 cycles
 SCF Done:  E(RB3LYP) =  -448.594449028     A.U. after   10 cycles
 SCF Done:  E(RB3LYP) =  -448.594517043     A.U. after    9 cycles
 SCF Done:  E(RB3LYP) =  -448.594534329     A.U. after    8 cycles
 SCF Done:  E(RB3LYP) =  -448.594541909     A.U. after    9 cycles
 SCF Done:  E(RB3LYP) =  -448.594542682     A.U. after    7 cycles
 SCF Done:  E(RB3LYP) =  -448.594542764     A.U. after    7 cycles
 Optimization completed.
    -- Stationary point found.
 Normal termination of Gaussian 09 at Wed Oct 13 15:56:30 2021.

 ----------------------------------------------------------------------
 #N Geom=AllCheck Guess=TCheck SCRF=Check GenChk RB3LYP/6-311+G(d,p) Fr
 eq
 ----------------------------------------------------------------------

 Structure from the checkpoint file:  "Figure2_2.chk"
 ---------
 Figure2_2
 ---------
 Charge =  0 Multiplicity = 1

                         Standard orientation:
 ---------------------------------------------------------------------
 Center     Atomic      Atomic             Coordinates (Angstroms)
 Number     Number       Type             X           Y           Z
 ---------------------------------------------------------------------
      1          7           0       -1.041635   -0.260321   -0.117525
      2          6           0        0.289771   -0.658311    0.342907
      3          6           0        1.431088    0.185796   -0.232760
      4          1           0        0.441846   -1.697794    0.033984
      5          1           0        0.346351   -0.650978    1.449783
      6          6           0        2.812281   -0.335904    0.180507
      7          1           0        1.343006    0.189395   -1.324886
      8          1           0        1.336259    1.227524    0.091925
      9          1           0        2.879993   -0.365045    1.275916
     10          1           0        2.926840   -1.374004   -0.158245
     11          6           0        3.971646    0.502134   -0.370839
     12          6           0        5.349250   -0.025038    0.040891
     13          1           0        3.860881    1.538576   -0.029467
     14          1           0        3.904674    0.534113   -1.465049
     15          1           0        6.152727    0.594581   -0.367134
     16          1           0        5.459402   -0.036398    1.129971
     17          1           0        5.504918   -1.047816   -0.316935
     18          6           0       -2.031256   -1.314071    0.122120
     19          1           0       -2.154113   -1.502949    1.208688
     20          1           0       -1.656571   -2.241213   -0.321265
     21          6           0       -3.391304   -0.957371   -0.483133
     22          1           0       -4.107040   -1.755640   -0.260765
     23          1           0       -3.289027   -0.905944   -1.572866
     24          6           0       -3.894687    0.387526    0.051805
     25          1           0       -4.824991    0.677667   -0.446612
     26          1           0       -4.126473    0.289203    1.120307
     27          6           0       -2.820443    1.463685   -0.136144
     28          1           0       -3.126126    2.403465    0.335297
     29          1           0       -2.682550    1.665130   -1.204304
     30          6           0       -1.482579    1.014117    0.455869
     31          1           0       -0.723064    1.772752    0.258251
     32          1           0       -1.578100    0.932246    1.558741
 ---------------------------------------------------------------------

 SCF Done:  E(RB3LYP) =  -448.594542764     A.U. after    1 cycles

 The electronic state is 1-A.
 Alpha  occ. eigenvalues --  -14.29995 -10.18802 -10.18780 -10.18708 -10.16453
 Alpha  occ. eigenvalues --  -10.16356 -10.16301 -10.16228 -10.16216 -10.16117
 Alpha  occ. eigenvalues --  -10.15729  -0.92452  -0.80772  -0.79027  -0.75133
 Alpha  occ. eigenvalues --   -0.74257  -0.67860  -0.63124  -0.62251  -0.58782
 Alpha  occ. eigenvalues --   -0.57680  -0.54984  -0.49215  -0.48156  -0.45844
 Alpha  occ. eigenvalues --   -0.45069  -0.44512  -0.42888  -0.42451  -0.41380
 Alpha  occ. eigenvalues --   -0.40200  -0.39553  -0.38428  -0.37192  -0.35541
 Alpha  occ. eigenvalues --   -0.34693  -0.33871  -0.33501  -0.33230  -0.32708
 Alpha  occ. eigenvalues --   -0.32226  -0.31305  -0.30604  -0.21609
 Alpha virt. eigenvalues --    0.00508   0.01101   0.01568   0.01961   0.02367
 Alpha virt. eigenvalues --    0.03071   0.03534   0.04121   0.04910   0.05467
 Alpha virt. eigenvalues --    0.05584   0.06007   0.06512   0.06813   0.07470

 Mulliken charges:
               1
     1  N    0.201298
     2  C   -0.394678
     3  C   -0.104967
     4  H    0.127014
     5  H    0.126721
     6  C   -0.330110
     7  H    0.147801
     8  H    0.125047
     9  H    0.137566
    10  H    0.138776
    11  C   -0.213624
    12  C   -0.619249
    13  H    0.134974
    14  H    0.136991
    15  H    0.137007
    16  H    0.132379
    17  H    0.132614
    18  C   -0.154091
    19  H    0.124498
    20  H    0.132649
    21  C   -0.369171
    22  H    0.144701
    23  H    0.149080
    24  C   -0.252407
    25  H    0.142449
    26  H    0.139523
    27  C   -0.357274
    28  H    0.143941
    29  H    0.149949
    30  C   -0.275608
    31  H    0.143698
    32  H    0.122503
 Sum of Mulliken charges =   0.00000

 Dipole moment (field-independent basis, Debye):
    X=             -0.0719    Y=              0.0096    Z=              0.3714  Tot=              0.3784
 Quadrupole moment (field-independent basis, Debye-Ang):
   XX=            -72.8602   YY=            -72.2683   ZZ=            -74.9989
   XY=              0.2807   XZ=             -0.5274   YZ=              0.7029

  Exact polarizability: 157.653  -0.535 120.002   1.096  -1.347 112.205
 Approx polarizability: 173.777  -0.451 172.970  -0.106  -0.913 175.794

 ESP charges:
               1
     1  N   -0.588524
     2  C    0.202087
     3  C    0.032058
     4  H    0.019616
     5  H   -0.036355
     6  C   -0.064251
     7  H   -0.006685
     8  H    0.011347
     9  H   -0.007863
    10  H    0.001680
    11  C    0.250588
    12  C   -0.181025
    13  H   -0.060759
    14  H   -0.056417
    15  H    0.033121
    16  H    0.033338
    17  H    0.031671
    18  C    0.176067
    19  H   -0.023831
    20  H    0.024541
    21  C   -0.018233
    22  H   -0.019645
    23  H    0.008894
    24  C    0.172417
    25  H   -0.043404
    26  H   -0.042908
    27  C   -0.063250
    28  H   -0.008845
    29  H    0.019433
    30  C    0.210678
    31  H    0.005316
    32  H   -0.010854
 Sum of ESP charges =   0.00000

 Summary of Natural Population Analysis:

                                       Natural Population
                Natural  -----------------------------------------------
    Atom  No    Charge         Core      Valence    Rydberg      Total
 -----------------------------------------------------------------------
      N    1   -0.58131      1.99940     5.54099    0.04092     7.58131
      C    2   -0.16044      1.99925     4.14286    0.01833     6.16044
      C    3   -0.38796      1.99927     4.37485    0.01384     6.38796
      H    4    0.18889      0.00000     0.80887    0.00224     0.81111
      H    5    0.16175      0.00000     0.83500    0.00325     0.83825
      C    6   -0.38007      1.99928     4.36691    0.01388     6.38007
      H    7    0.19965      0.00000     0.79728    0.00307     0.80035
      H    8    0.18863      0.00000     0.80887    0.00250     0.81137
      H    9    0.18862      0.00000     0.80906    0.00233     0.81138
      H   10    0.18778      0.00000     0.80995    0.00227     0.81222
      C   11   -0.38137      1.99932     4.36908    0.01297     6.38137
      C   12   -0.57275      1.99938     4.56425    0.00913     6.57275
      H   13    0.18762      0.00000     0.81008    0.00231     0.81238
      H   14    0.18865      0.00000     0.80903    0.00232     0.81135
      H   15    0.19954      0.00000     0.79926    0.00121     0.80046
      H   16    0.19277      0.00000     0.80551    0.00172     0.80723
      H   17    0.19293      0.00000     0.80536    0.00171     0.80707
      C   18   -0.16675      1.99927     4.14913    0.01835     6.16675
      H   19    0.15904      0.00000     0.83763    0.00333     0.84096
      H   20    0.19380      0.00000     0.80435    0.00185     0.80620
      C   21   -0.39053      1.99928     4.37661    0.01464     6.39053
      H   22    0.19953      0.00000     0.79868    0.00179     0.80047
      H   23    0.19696      0.00000     0.80038    0.00266     0.80304
      C   24   -0.38349      1.99929     4.37001    0.01419     6.38349
      H   25    0.20054      0.00000     0.79799    0.00147     0.79946
      H   26    0.18839      0.00000     0.80936    0.00225     0.81161
      C   27   -0.39016      1.99928     4.37629    0.01459     6.39016
      H   28    0.19941      0.00000     0.79883    0.00176     0.80059
      H   29    0.19707      0.00000     0.80026    0.00267     0.80293
      C   30   -0.17150      1.99926     4.15359    0.01864     6.17150
      H   31    0.19571      0.00000     0.80218    0.00211     0.80429
      H   32    0.15906      0.00000     0.83763    0.00332     0.84094
 =======================================================================
   * Total *    0.00000     21.99227    65.77011    0.23761    88.00000

                      1                      2                      3
                      A                      A                      A
 Frequencies --     43.4041                48.6855                72.0443
 Red. masses --      1.7141                 3.0568                 3.1873
 Frc consts  --      0.0019                 0.0043                 0.0097
 IR Inten    --      0.0673                 0.0569                 0.0424

                      4                      5                      6
                      A                      A                      A
 Frequencies --    113.2013               129.5710               164.1395
 Red. masses --      2.5201                 1.8175                 2.5539
 Frc consts  --      0.0190                 0.0180                 0.0405
 IR Inten    --      0.1087                 0.1002                 0.5268

                      7                      8                      9
                      A                      A                      A
 Frequencies --    222.3459               241.7577               245.3944
 Red. masses --      2.8445                 1.8376                 1.1388
 Frc consts  --      0.0829                 0.0633                 0.0404
 IR Inten    --      0.5242                 0.1504                 0.0342

                     10                     11                     12
                      A                      A                      A
 Frequencies --    274.5532               319.3550               368.6856
 Red. masses --      3.1179                 1.9297                 2.7391
 Frc consts  --      0.1385                 0.1160                 0.2194
 IR Inten    --      0.1109                 1.9081                 0.1292

                     13                     14                     15
                      A                      A                      A
 Frequencies --    409.5553               453.8379               468.0266
 Red. masses --      1.9379                 2.7095                 2.9176
 Frc consts  --      0.1915                 0.3288                 0.3766
 IR Inten    --      2.9712                 1.6681                 0.4977

                     16                     17                     18
                      A                      A                      A
 Frequencies --    501.4674               584.4834               735.1068
 Red. masses --      2.7645                 1.8786                 1.0685
 Frc consts  --      0.4096                 0.3781                 0.3402
 IR Inten    --      1.6329                 0.1196                 2.8932

                     19                     20                     21
                      A                      A                      A
 Frequencies --    765.7597               786.9044               819.5414
 Red. masses --      1.1565                 3.0616                 1.4866
 Frc consts  --      0.3996                 1.1170                 0.5883
 IR Inten    --      0.2447                10.5713                 0.6802

                     22                     23                     24
                      A                      A                      A
 Frequencies --    852.8294               863.9604               875.3094
 Red. masses --      1.3770                 2.2368                 1.4191
 Frc consts  --      0.5901                 0.9837                 0.6406
 IR Inten    --      1.2634                 3.1563                 2.7665

                     25                     26                     27
                      A                      A                      A
 Frequencies --    902.5753               912.0354               979.2144
 Red. masses --      1.9655                 2.2680                 1.2962
 Frc consts  --      0.9434                 1.1115                 0.7323
 IR Inten    --      6.3476                 1.0982                 1.4976

                     28                     29                     30
                      A                      A                      A
 Frequencies --    986.0613              1000.0311              1016.7342
 Red. masses --      1.2203                 2.4046                 3.4290
 Frc consts  --      0.6991                 1.4168                 2.0885
 IR Inten    --      0.8299                 7.7795                 2.4853

                     31                     32                     33
                      A                      A                      A
 Frequencies --   1048.1446              1051.8406              1063.5193
 Red. masses --      2.5567                 2.0775                 2.3692
 Frc consts  --      1.6549                 1.3542                 1.5789
 IR Inten    --      5.5396                 7.9855                 0.0946

                     34                     35                     36
                      A                      A                      A
 Frequencies --   1078.0272              1112.6265              1125.6106
 Red. masses --      1.5589                 2.6104                 2.3038
 Frc consts  --      1.0674                 1.9040                 1.7198
 IR Inten    --      7.0599                26.6592                14.6099

                     37                     38                     39
                      A                      A                      A
 Frequencies --   1149.3277              1171.1919              1178.3523
 Red. masses --      2.3777                 1.8017                 1.3268
 Frc consts  --      1.8505                 1.4561                 1.0855
 IR Inten    --     13.0903                17.5557                 7.5562

                     40                     41                     42
                      A                      A                      A
 Frequencies --   1182.0614              1230.1625              1253.9118
 Red. masses --      1.8795                 1.5332                 1.4553
 Frc consts  --      1.5473                 1.3671                 1.3482
 IR Inten    --     10.8051                 2.7682                 5.5572

                     43                     44                     45
                      A                      A                      A
 Frequencies --   1283.0336              1288.6080              1299.2044
 Red. masses --      1.4664                 1.2625                 1.1632
 Frc consts  --      1.4223                 1.2352                 1.1568
 IR Inten    --      5.1501                 6.3987                 7.1402

                     46                     47                     48
                      A                      A                      A
 Frequencies --   1312.7557              1325.3479              1328.9719
 Red. masses --      1.2519                 1.2302                 1.0812
 Frc consts  --      1.2711                 1.2731                 1.1251
 IR Inten    --      2.7659                 3.7074                 5.4240

                     49                     50                     51
                      A                      A                      A
 Frequencies --   1339.9520              1353.5596              1358.3033
 Red. masses --      1.2093                 1.3789                 1.2946
 Frc consts  --      1.2793                 1.4885                 1.4073
 IR Inten    --      7.1576                 2.3225                 2.4498

                     52                     53                     54
                      A                      A                      A
 Frequencies --   1377.8935              1382.4722              1385.5075
 Red. masses --      1.3646                 1.4866                 1.4529
 Frc consts  --      1.5264                 1.6740                 1.6433
 IR Inten    --      2.0016                10.8327                 3.9616

                     55                     56                     57
                      A                      A                      A
 Frequencies --   1396.7521              1410.6412              1415.0718
 Red. masses --      1.5678                 1.3879                 1.2684
 Frc consts  --      1.8021                 1.6272                 1.4965
 IR Inten    --      1.5332                 8.6120                 9.0585

                     58                     59                     60
                      A                      A                      A
 Frequencies --   1430.4890              1478.7687              1485.9117
 Red. masses --      1.4515                 1.0921                 1.0822
 Frc consts  --      1.7499                 1.4071                 1.4078
 IR Inten    --      2.8622                 2.7145                 2.2733

                     61                     62                     63
                      A                      A                      A
 Frequencies --   1486.6004              1487.9575              1492.4154
 Red. masses --      1.0850                 1.0720                 1.0804
 Frc consts  --      1.4127                 1.3983                 1.4178
 IR Inten    --      5.7215                 0.0453                 7.0909

                     64                     65                     66
                      A                      A                      A
 Frequencies --   1495.2890              1499.0489              1500.3768
 Red. masses --      1.0859                 1.0800                 1.0397
 Frc consts  --      1.4305                 1.4298                 1.3790
 IR Inten    --      2.0237                 1.0672                 8.2841

                     67                     68                     69
                      A                      A                      A
 Frequencies --   1504.3236              1511.5099              1517.2520
 Red. masses --      1.0841                 1.0951                 1.0995
 Frc consts  --      1.4454                 1.4741                 1.4913
 IR Inten    --      0.6143                 2.2617                10.7552

                     70                     71                     72
                      A                      A                      A
 Frequencies --   2863.9798              2870.8633              2887.9751
 Red. masses --      1.0739                 1.0728                 1.0725
 Frc consts  --      5.1896                 5.2094                 5.2700
 IR Inten    --     33.2352                60.7558               169.7369

                     73                     74                     75
                      A                      A                      A
 Frequencies --   2993.4458              3002.5419              3006.7509
 Red. masses --      1.0577                 1.0675                 1.0593
 Frc consts  --      5.5839                 5.6702                 5.6424
 IR Inten    --     10.9049                28.2778                26.8284

                     76                     77                     78
                      A                      A                      A
 Frequencies --   3013.3536              3017.7538              3019.1249
 Red. masses --      1.1003                 1.0357                 1.0619
 Frc consts  --      5.8864                 5.5570                 5.7032
 IR Inten    --      1.6507                40.8382                20.2471

                     79                     80                     81
                      A                      A                      A
 Frequencies --   3019.7061              3021.6846              3033.8160
 Red. masses --      1.0604                 1.0597                 1.0920
 Frc consts  --      5.6973                 5.7007                 5.9216
 IR Inten    --     43.0438                28.3215                14.4748

                     82                     83                     84
                      A                      A                      A
 Frequencies --   3038.7262              3050.1541              3052.7750
 Red. masses --      1.0974                 1.0903                 1.0879
 Frc consts  --      5.9701                 5.9763                 5.9736
 IR Inten    --     12.8265                75.9745                33.9091

                     85                     86                     87
                      A                      A                      A
 Frequencies --   3057.7467              3063.0228              3064.4840
 Red. masses --      1.1040                 1.1022                 1.1040
 Frc consts  --      6.0818                 6.0926                 6.1086
 IR Inten    --     23.0692                18.9269               116.1871

                     88                     89                     90
                      A                      A                      A
 Frequencies --   3078.2577              3081.2888              3082.6981
 Red. masses --      1.1016                 1.0874                 1.1008
 Frc consts  --      6.1499                 6.0830                 6.1634
 IR Inten    --     67.0546                49.9423                50.9954

 - Thermochemistry -
 -------------------
 Temperature   298.150 Kelvin.  Pressure   1.00000 Atm.
 Atom     1 has atomic number  7 and mass  14.00307

 Molecular mass:   155.16740 amu.
 Principal axes and moments of inertia in atomic units:
                           1         2         3
     Eigenvalues --   525.111355123.198095441.33364
           X            1.00000  -0.00037  -0.00023
           Y            0.00037   0.99998  -0.00693
           Z            0.00023   0.00693   0.99998
 This molecule is an asymmetric top.
 Rotational symmetry number  1.
 Warning -- assumption of classical behavior for rotation
           may cause significant error
 Rotational temperatures (Kelvin)      0.16494     0.01691     0.01592
 Rotational constants (GHZ):           3.43687     0.35227     0.33167
 Zero-point vibrational energy     785166.1 (Joules/Mol)
                                  187.65919 (Kcal/Mol)
 Warning -- explicit consideration of  17 degrees of freedom as
           vibrations may cause significant error
 Vibrational temperatures:     62.45    70.05   103.66   162.87   186.42
          (Kelvin)            236.16   319.91   347.83   353.07   395.02
                              459.48   530.46   589.26   652.97   673.39
                              721.50   840.94  1057.65  1101.76  1132.18
                             1179.14  1227.03  1243.04  1259.37  1298.60
                             1312.21  1408.87  1418.72  1438.82  1462.85
                             1508.04  1513.36  1530.17  1551.04  1600.82
                             1619.50  1653.62  1685.08  1695.38  1700.72
                             1769.93  1804.10  1846.00  1854.02  1869.26
                             1888.76  1906.88  1912.09  1927.89  1947.47
                             1954.29  1982.48  1989.07  1993.43  2009.61
                             2029.60  2035.97  2058.15  2127.62  2137.89
                             2138.88  2140.84  2147.25  2151.38  2156.79
                             2158.70  2164.38  2174.72  2182.98  4120.62
                             4130.53  4155.15  4306.90  4319.98  4326.04
                             4335.54  4341.87  4343.84  4344.68  4347.52
                             4364.98  4372.04  4388.49  4392.26  4399.41
                             4407.00  4409.10  4428.92  4433.28  4435.31

 Zero-point correction=                           0.299054 (Hartree/Particle)
 Thermal correction to Energy=                    0.311532
 Thermal correction to Enthalpy=                  0.312476
 Thermal correction to Gibbs Free Energy=         0.259705
 Sum of electronic and zero-point Energies=           -448.295489
 Sum of electronic and thermal Energies=              -448.283011
 Sum of electronic and thermal Enthalpies=            -448.282067
 Sum of electronic and thermal Free Energies=         -448.334838

                     E (Thermal)             CV                S
                      KCal/Mol        Cal/Mol-Kelvin    Cal/Mol-Kelvin
 Total                  195.489             47.124            111.066
 Electronic               0.000              0.000              0.000
 Translational            0.889              2.981             41.028
 Rotational               0.889              2.981             31.060
 Vibrational            193.712             41.163             38.979
 Vibration     1          0.595              1.980              5.097
 Vibration     2          0.595              1.978              4.870
 Vibration     3          0.598              1.967              4.097
 Vibration     4          0.607              1.939              3.213
 Vibration     5          0.612              1.924              2.952
 Vibration     6          0.623              1.886              2.502
 Vibration     7          0.648              1.807              1.940
 Vibration     8          0.658              1.776              1.790
 Vibration     9          0.660              1.770              1.763
 Vibration    10          0.677              1.720              1.567
 Vibration    11          0.705              1.637              1.313
 Vibration    12          0.741              1.537              1.085
 Vibration    13          0.774              1.449              0.928
 Vibration    14          0.812              1.352              0.784
 Vibration    15          0.825              1.321              0.743
 Vibration    16          0.857              1.247              0.654
 Vibration    17          0.941              1.065              0.477

 Optimization completed.
    -- Stationary point found.
 Normal termination of Gaussian 09 at Wed Oct 13 16:04:19 2021.
