 Gaussian 09, Revision D.01,
 Gaussian 09:  ES64L-G09RevD.01 24-Apr-2013

 ----------------------------------------------------------------------
 # opt freq b3lyp/6-311+g(d,p) geom=connectivity pop=(hirshfeld,chelpg,
 mbs,npa)
 ----------------------------------------------------------------------

 -------------------
 Title Card Required
 -------------------
 Symbolic Z-matrix:
 Charge =  0 Multiplicity = 1

 SCF Done:  E(RB3LYP) =  -458.586853300     A.U. after   15 cycles
 SCF Done:  E(RB3LYP) =  -458.609698077     A.U. after   13 cycles
 SCF Done:  E(RB3LYP) =  -458.619105852     A.U. after   14 cycles
 SCF Done:  E(RB3LYP) =  -458.623813944     A.U. after   12 cycles
 SCF Done:  E(RB3LYP) =  -458.626851412     A.U. after   13 cycles
 SCF Done:  E(RB3LYP) =  -458.628605312     A.U. after   12 cycles
 SCF Done:  E(RB3LYP) =  -458.629071810     A.U. after   12 cycles
 SCF Done:  E(RB3LYP) =  -458.629201654     A.U. after   11 cycles
 SCF Done:  E(RB3LYP) =  -458.629233796     A.U. after   11 cycles
 SCF Done:  E(RB3LYP) =  -458.629245690     A.U. after   11 cycles
 SCF Done:  E(RB3LYP) =  -458.629252150     A.U. after   10 cycles
 SCF Done:  E(RB3LYP) =  -458.629256705     A.U. after   10 cycles
 SCF Done:  E(RB3LYP) =  -458.629257928     A.U. after   10 cycles
 SCF Done:  E(RB3LYP) =  -458.629258092     A.U. after    8 cycles
 SCF Done:  E(RB3LYP) =  -458.629258137     A.U. after    8 cycles
 Optimization completed.
    -- Stationary point found.
 Normal termination of Gaussian 09 at Mon Nov  1 17:00:45 2021.

 ----------------------------------------------------------------------
 #N Geom=AllCheck Guess=TCheck SCRF=Check GenChk RB3LYP/6-311+G(d,p) Fr
 eq
 ----------------------------------------------------------------------

 Structure from the checkpoint file:  "Chart3_3.chk"
 -------------------
 Title Card Required
 -------------------
 Charge =  0 Multiplicity = 1

                         Standard orientation:
 ---------------------------------------------------------------------
 Center     Atomic      Atomic             Coordinates (Angstroms)
 Number     Number       Type             X           Y           Z
 ---------------------------------------------------------------------
      1          6           0       -0.862590   -1.973287    0.000016
      2          6           0        0.165196   -1.025307    0.000013
      3          6           0       -0.148549    0.350561   -0.000077
      4          6           0       -1.457238    0.844231   -0.000069
      5          6           0       -2.457617   -0.127292   -0.000055
      6          6           0       -2.169744   -1.505154   -0.000008
      7          1           0       -3.494388    0.193176   -0.000063
      8          6           0        2.055219    0.000750    0.000003
      9          7           0        1.542983   -1.203204    0.000064
     10          6           0        3.511849    0.323557   -0.000007
     11          1           0        3.793718    0.902567   -0.885240
     12          1           0        3.793410    0.903843    0.884478
     13          1           0        4.076589   -0.607339    0.000714
     14          1           0       -0.634129   -3.032123    0.000042
     15          7           0        1.084960    0.985379    0.000064
     16          1           0        1.251025    1.978627   -0.000696
     17          1           0       -2.992048   -2.211625   -0.000015
     18          6           0       -1.752367    2.321681    0.000093
     19          1           0       -1.334316    2.816947    0.884086
     20          1           0       -1.332167    2.817622   -0.882496
     21          1           0       -2.828244    2.504642   -0.001162
 ---------------------------------------------------------------------

 SCF Done:  E(RB3LYP) =  -458.629258137     A.U. after    1 cycles

 The electronic state is 1-A.
 Alpha  occ. eigenvalues --  -14.36865 -14.29496 -10.24626 -10.20750 -10.19173
 Alpha  occ. eigenvalues --  -10.18769 -10.18594 -10.17920 -10.16969 -10.16770
 Alpha  occ. eigenvalues --  -10.16695  -1.02082  -0.88238  -0.85261  -0.77639
 Alpha  occ. eigenvalues --   -0.76945  -0.70863  -0.69522  -0.61919  -0.60401
 Alpha  occ. eigenvalues --   -0.59567  -0.53273  -0.50456  -0.47137  -0.46554
 Alpha  occ. eigenvalues --   -0.44902  -0.43296  -0.42480  -0.41320  -0.41043
 Alpha  occ. eigenvalues --   -0.40689  -0.39365  -0.36297  -0.35465  -0.33691
 Alpha  occ. eigenvalues --   -0.30471  -0.27660  -0.22969  -0.22618
 Alpha virt. eigenvalues --   -0.02204  -0.01558   0.00868   0.00925   0.01817
 Alpha virt. eigenvalues --    0.03125   0.03636   0.03776   0.04073   0.04454
 Alpha virt. eigenvalues --    0.06066   0.06136   0.06198   0.06829   0.08074

 Mulliken charges:
               1
     1  C   -0.658141
     2  C    0.728567
     3  C    0.667771
     4  C    0.128615
     5  C   -1.162400
     6  C   -0.189279
     7  H    0.109748
     8  C    0.224861
     9  N   -0.122738
    10  C   -0.431916
    11  H    0.151854
    12  H    0.151802
    13  H    0.179053
    14  H    0.121889
    15  N   -0.226386
    16  H    0.304421
    17  H    0.121279
    18  C   -0.548191
    19  H    0.152739
    20  H    0.152440
    21  H    0.144014
 Sum of Mulliken charges =   0.00000

 Dipole moment (field-independent basis, Debye):
    X=              0.5933    Y=              3.8611    Z=             -0.0010  Tot=              3.9065
 Quadrupole moment (field-independent basis, Debye-Ang):
   XX=            -58.4143   YY=            -61.6373   ZZ=            -69.1161
   XY=              5.9485   XZ=             -0.0021   YZ=             -0.0022

  Exact polarizability: 160.141   6.067 129.548  -0.001   0.001  70.442
 Approx polarizability: 236.993  11.720 212.590  -0.001   0.000 109.049

 ESP charges:
               1
     1  C   -0.319244
     2  C    0.487668
     3  C    0.019920
     4  C    0.089837
     5  C   -0.283978
     6  C   -0.054005
     7  H    0.137573
     8  C    0.586754
     9  N   -0.727757
    10  C   -0.185869
    11  H    0.045447
    12  H    0.045507
    13  H    0.082731
    14  H    0.156569
    15  N   -0.549447
    16  H    0.361040
    17  H    0.089978
    18  C   -0.071179
    19  H    0.025450
    20  H    0.025512
    21  H    0.037493
 Sum of ESP charges =   0.00000

 Summary of Natural Population Analysis:

                                       Natural Population
                Natural  -----------------------------------------------
    Atom  No    Charge         Core      Valence    Rydberg      Total
 -----------------------------------------------------------------------
      C    1   -0.20105      1.99906     4.18416    0.01783     6.20105
      C    2    0.11352      1.99891     3.86153    0.02604     5.88648
      C    3    0.12382      1.99885     3.85845    0.01888     5.87618
      C    4   -0.06425      1.99897     4.05028    0.01499     6.06425
      C    5   -0.20727      1.99909     4.19079    0.01739     6.20727
      C    6   -0.21627      1.99919     4.19874    0.01834     6.21627
      H    7    0.20146      0.00000     0.79695    0.00159     0.79854
      C    8    0.41372      1.99931     3.55631    0.03066     5.58628
      N    9   -0.50412      1.99934     5.48463    0.02015     7.50412
      C   10   -0.62001      1.99928     4.61228    0.00845     6.62001
      H   11    0.21453      0.00000     0.78400    0.00147     0.78547
      H   12    0.21452      0.00000     0.78401    0.00147     0.78548
      H   13    0.23836      0.00000     0.76001    0.00163     0.76164
      H   14    0.21632      0.00000     0.78175    0.00193     0.78368
      N   15   -0.57170      1.99925     5.55665    0.01580     7.57170
      H   16    0.40893      0.00000     0.58912    0.00195     0.59107
      H   17    0.20472      0.00000     0.79370    0.00158     0.79528
      C   18   -0.59042      1.99931     4.58160    0.00951     6.59042
      H   19    0.20579      0.00000     0.79257    0.00164     0.79421
      H   20    0.20572      0.00000     0.79263    0.00164     0.79428
      H   21    0.21368      0.00000     0.78500    0.00133     0.78632
 =======================================================================
   * Total *    0.00000     21.99058    55.79514    0.21428    78.00000

                      1                      2                      3
                      A                      A                      A
 Frequencies --     53.8544               102.8079               134.6771
 Red. masses --      1.0418                 1.0549                 3.2002
 Frc consts  --      0.0018                 0.0066                 0.0342
 IR Inten    --      0.0730                 0.0022                 4.3108

                      4                      5                      6
                      A                      A                      A
 Frequencies --    172.8781               205.6195               276.3373
 Red. masses --      3.4067                 2.8267                 4.4121
 Frc consts  --      0.0600                 0.0704                 0.1985
 IR Inten    --      1.1389                 1.2873                 3.0215

                      7                      8                      9
                      A                      A                      A
 Frequencies --    312.7943               325.9694               412.6902
 Red. masses --      4.3593                 2.7445                 1.2255
 Frc consts  --      0.2513                 0.1718                 0.1230
 IR Inten    --      0.5620                 1.1506                80.4226

                     10                     11                     12
                      A                      A                      A
 Frequencies --    474.9218               514.7592               521.2463
 Red. masses --      5.0882                 3.6137                 3.8797
 Frc consts  --      0.6762                 0.5642                 0.6211
 IR Inten    --      0.4992                 0.3342                 8.3494

                     13                     14                     15
                      A                      A                      A
 Frequencies --    571.7145               589.6678               641.8516
 Red. masses --      4.2418                 3.3593                 6.2001
 Frc consts  --      0.8169                 0.6882                 1.5049
 IR Inten    --      0.0560                 4.4872                 0.6573

                     16                     17                     18
                      A                      A                      A
 Frequencies --    675.9224               745.6515               771.3346
 Red. masses --      3.6875                 2.3043                 5.2203
 Frc consts  --      0.9926                 0.7549                 1.8299
 IR Inten    --      1.7772                19.7265                 1.1935

                     19                     20                     21
                      A                      A                      A
 Frequencies --    789.5210               873.6048               901.7463
 Red. masses --      1.8720                 3.8037                 1.3702
 Frc consts  --      0.6875                 1.7103                 0.6564
 IR Inten    --     40.5853                 0.5373                 0.2911

                     22                     23                     24
                      A                      A                      A
 Frequencies --    970.6011               972.8889               982.3881
 Red. masses --      1.7767                 1.2903                 2.2996
 Frc consts  --      0.9862                 0.7195                 1.3076
 IR Inten    --     10.0972                 0.5446                 0.6239

                     25                     26                     27
                      A                      A                      A
 Frequencies --   1027.7518              1057.1530              1059.9234
 Red. masses --      2.8735                 1.4815                 1.5145
 Frc consts  --      1.7883                 0.9755                 1.0025
 IR Inten    --      0.0947                 1.7758                 0.5936

                     28                     29                     30
                      A                      A                      A
 Frequencies --   1066.5092              1096.8557              1180.2753
 Red. masses --      2.5956                 1.8214                 1.2893
 Frc consts  --      1.7395                 1.2911                 1.0582
 IR Inten    --      0.7865                 8.4170                 0.5329

                     31                     32                     33
                      A                      A                      A
 Frequencies --   1202.5202              1271.8643              1293.9515
 Red. masses --      1.9079                 2.0922                 4.2351
 Frc consts  --      1.6255                 1.9941                 4.1778
 IR Inten    --      5.6973                14.6658                38.5952

                     34                     35                     36
                      A                      A                      A
 Frequencies --   1311.9857              1377.2527              1412.0079
 Red. masses --      2.9726                 3.2002                 1.4501
 Frc consts  --      3.0147                 3.5765                 1.7034
 IR Inten    --      3.5288                32.9088                24.3702

                     37                     38                     39
                      A                      A                      A
 Frequencies --   1414.9813              1420.9800              1441.8173
 Red. masses --      1.4679                 1.9691                 2.6735
 Frc consts  --      1.7316                 2.3426                 3.2745
 IR Inten    --      2.8355                46.0355                29.0682

                     40                     41                     42
                      A                      A                      A
 Frequencies --   1482.6412              1485.9250              1486.8731
 Red. masses --      1.0424                 1.0429                 1.1889
 Frc consts  --      1.3501                 1.3567                 1.5486
 IR Inten    --      9.2306                 8.5461                11.3002

                     43                     44                     45
                      A                      A                      A
 Frequencies --   1499.9485              1530.4664              1579.5825
 Red. masses --      1.1600                 3.1890                 5.7212
 Frc consts  --      1.5377                 4.4009                 8.4104
 IR Inten    --     14.4294                 0.0516                57.9911

                     46                     47                     48
                      A                      A                      A
 Frequencies --   1637.0832              1657.5545              3007.9829
 Red. masses --      6.8660                 6.5963                 1.0395
 Frc consts  --     10.8417                10.6779                 5.5413
 IR Inten    --      1.4237                19.0316                39.3713

                     49                     50                     51
                      A                      A                      A
 Frequencies --   3025.6279              3049.3126              3072.5330
 Red. masses --      1.0398                 1.1003                 1.1005
 Frc consts  --      5.6084                 6.0278                 6.1212
 IR Inten    --     31.6352                22.4779                14.3979

                     52                     53                     54
                      A                      A                      A
 Frequencies --   3102.7800              3140.4350              3157.9904
 Red. masses --      1.0970                 1.0973                 1.0875
 Frc consts  --      6.2224                 6.3761                 6.3903
 IR Inten    --     16.4485                 3.3064                 8.9492

                     55                     56                     57
                      A                      A                      A
 Frequencies --   3176.7389              3195.8144              3657.8299
 Red. masses --      1.0906                 1.0950                 1.0805
 Frc consts  --      6.4844                 6.5893                 8.5175
 IR Inten    --     15.1158                11.6068                50.4345

 - Thermochemistry -
 -------------------
 Temperature   298.150 Kelvin.  Pressure   1.00000 Atm.
 Atom     1 has atomic number  6 and mass  12.00000

 Molecular mass:   146.08440 amu.
 Principal axes and moments of inertia in atomic units:
                           1         2         3
     Eigenvalues --   864.047921904.067842745.61216
           X            1.00000   0.00046   0.00000
           Y           -0.00046   1.00000   0.00000
           Z            0.00000   0.00000   1.00000
 This molecule is an asymmetric top.
 Rotational symmetry number  1.
 Warning -- assumption of classical behavior for rotation
           may cause significant error
 Rotational temperatures (Kelvin)      0.10024     0.04549     0.03155
 Rotational constants (GHZ):           2.08871     0.94783     0.65732
 Zero-point vibrational energy     452059.2 (Joules/Mol)
                                  108.04474 (Kcal/Mol)
 Warning -- explicit consideration of  14 degrees of freedom as
           vibrations may cause significant error
 Vibrational temperatures:     77.48   147.92   193.77   248.73   295.84
          (Kelvin)            397.59   450.04   469.00   593.77   683.31
                              740.62   749.96   822.57   848.40   923.48
                              972.50  1072.82  1109.78  1135.94  1256.92
                             1297.41  1396.48  1399.77  1413.44  1478.70
                             1521.01  1524.99  1534.47  1578.13  1698.15
                             1730.16  1829.93  1861.71  1887.65  1981.56
                             2031.56  2035.84  2044.47  2074.45  2133.19
                             2137.91  2139.28  2158.09  2202.00  2272.66
                             2355.39  2384.85  4327.81  4353.20  4387.28
                             4420.68  4464.20  4518.38  4543.64  4570.61
                             4598.06  5262.79

 Zero-point correction=                           0.172180 (Hartree/Particle)
 Thermal correction to Energy=                    0.181988
 Thermal correction to Enthalpy=                  0.182932
 Thermal correction to Gibbs Free Energy=         0.136879
 Sum of electronic and zero-point Energies=           -458.457078
 Sum of electronic and thermal Energies=              -458.447270
 Sum of electronic and thermal Enthalpies=            -458.446326
 Sum of electronic and thermal Free Energies=         -458.492379

                     E (Thermal)             CV                S
                      KCal/Mol        Cal/Mol-Kelvin    Cal/Mol-Kelvin
 Total                  114.199             37.483             96.927
 Electronic               0.000              0.000              0.000
 Translational            0.889              2.981             40.848
 Rotational               0.889              2.981             29.892
 Vibrational            112.422             31.521             26.187
 Vibration     1          0.596              1.976              4.671
 Vibration     2          0.605              1.947              3.400
 Vibration     3          0.613              1.919              2.878
 Vibration     4          0.626              1.876              2.404
 Vibration     5          0.640              1.832              2.082
 Vibration     6          0.678              1.717              1.556
 Vibration     7          0.701              1.649              1.348
 Vibration     8          0.710              1.624              1.280
 Vibration     9          0.776              1.443              0.917
 Vibration    10          0.832              1.306              0.724
 Vibration    11          0.870              1.217              0.622
 Vibration    12          0.876              1.203              0.607
 Vibration    13          0.928              1.092              0.501
 Vibration    14          0.947              1.054              0.468

 Normal termination of Gaussian 09 at Mon Nov  1 17:03:54 2021.
