 Gaussian 09, Revision D.01,
 Gaussian 09:  ES64L-G09RevD.01 24-Apr-2013

 ----------------------------------------------------------------------
 # opt freq b3lyp/6-311+g(d,p) pop=(npa,hirshfeld,mbs) geom=connectivit
 y
 ----------------------------------------------------------------------

 --------
 Table2_6
 --------
 Symbolic Z-matrix:
 Charge =  0 Multiplicity = 1

 SCF Done:  E(RB3LYP) =  -3328.91048255     A.U. after   15 cycles
 SCF Done:  E(RB3LYP) =  -3328.92348109     A.U. after   14 cycles
 SCF Done:  E(RB3LYP) =  -3328.92476805     A.U. after   12 cycles
 SCF Done:  E(RB3LYP) =  -3328.92515647     A.U. after   14 cycles
 SCF Done:  E(RB3LYP) =  -3328.92520165     A.U. after   11 cycles
 SCF Done:  E(RB3LYP) =  -3328.92521229     A.U. after   10 cycles
 SCF Done:  E(RB3LYP) =  -3328.92521339     A.U. after   10 cycles
 SCF Done:  E(RB3LYP) =  -3328.92521399     A.U. after   10 cycles
 SCF Done:  E(RB3LYP) =  -3328.92521398     A.U. after    9 cycles
 Optimization completed.
    -- Stationary point found.
 Normal termination of Gaussian 09 at Tue Nov  9 16:55:46 2021.

 ----------------------------------------------------------------------
 #N Geom=AllCheck Guess=TCheck SCRF=Check GenChk RB3LYP/6-311+G(d,p) Fr
 eq
 ----------------------------------------------------------------------

 Structure from the checkpoint file:  "Table2_6.chk"
 --------
 Table2_6
 --------
 Charge =  0 Multiplicity = 1

                         Standard orientation:
 ---------------------------------------------------------------------
 Center     Atomic      Atomic             Coordinates (Angstroms)
 Number     Number       Type             X           Y           Z
 ---------------------------------------------------------------------
      1          6           0       -0.403901   -2.445611    0.127636
      2          6           0        0.755263   -1.713494    0.108946
      3          6           0        0.716189   -0.303034   -0.037088
      4          6           0       -0.561514    0.348994   -0.162139
      5          6           0       -1.767773   -0.433152   -0.130343
      6          6           0       -1.656560   -1.805051    0.008077
      7          1           0       -0.361041   -3.523771    0.235195
      8          6           0        1.883013    0.513117   -0.069237
      9          6           0       -0.590249    1.760369   -0.319175
     10          1           0       -2.548219   -2.422429    0.026126
     11          6           0        0.564850    2.502011   -0.345745
     12          6           0        1.822037    1.875969   -0.216508
     13          1           0       -1.542715    2.262091   -0.434661
     14          1           0        0.521348    3.577972   -0.469703
     15          1           0        2.729569    2.464913   -0.237199
     16         14           0       -3.503524    0.335055   -0.226608
     17          1           0       -3.540171    1.314987   -1.349816
     18          6           0       -3.927214    1.237906    1.376873
     19          1           0       -3.207353    2.028201    1.604373
     20          1           0       -4.919014    1.695832    1.312090
     21          1           0       -3.932662    0.542514    2.221478
     22          6           0       -4.788347   -1.002054   -0.570797
     23          1           0       -5.772619   -0.540387   -0.694493
     24          1           0       -4.563760   -1.552709   -1.488187
     25          1           0       -4.866208   -1.721870    0.249082
     26          1           0        1.713913   -2.205560    0.203720
     27         35           0        3.630386   -0.280753    0.096329
 ---------------------------------------------------------------------

 SCF Done:  E(RB3LYP) =  -3328.92521398     A.U. after    1 cycles

 The electronic state is 1-A.
 Alpha  occ. eigenvalues -- -482.83180 -66.09311 -62.48469 -56.30501 -56.30119
 Alpha  occ. eigenvalues --  -56.30105 -10.23949 -10.20460 -10.20293 -10.19301
 Alpha  occ. eigenvalues --  -10.19056 -10.18774 -10.18730 -10.18640 -10.18538
 Alpha  occ. eigenvalues --  -10.17854 -10.15697 -10.15449  -8.69440  -6.52570
 Alpha  occ. eigenvalues --   -6.51296  -6.51269  -5.26638  -3.62470  -3.62444
 Alpha  occ. eigenvalues --   -3.62403  -2.63665  -2.63300  -2.63282  -2.62271
 Alpha  occ. eigenvalues --   -2.62269  -0.89533  -0.84339  -0.81538  -0.76432
 Alpha  occ. eigenvalues --   -0.75883  -0.72494  -0.71211  -0.68951  -0.63821
 Alpha  occ. eigenvalues --   -0.63137  -0.59553  -0.52929  -0.52115  -0.51367
 Alpha  occ. eigenvalues --   -0.48895  -0.46205  -0.43896  -0.43101  -0.42593
 Alpha  occ. eigenvalues --   -0.42110  -0.41726  -0.41354  -0.40252  -0.40051
 Alpha  occ. eigenvalues --   -0.39355  -0.36950  -0.35825  -0.35438  -0.32980
 Alpha  occ. eigenvalues --   -0.32127  -0.31884  -0.30965  -0.29435  -0.27784
 Alpha  occ. eigenvalues --   -0.26300  -0.23030
 Alpha virt. eigenvalues --   -0.06509  -0.03432  -0.01838  -0.01034  -0.00341
 Alpha virt. eigenvalues --    0.00366   0.00990   0.01611   0.02434   0.02877
 Alpha virt. eigenvalues --    0.03249   0.04603   0.04826   0.05158   0.05325

 Mulliken charges:
               1
     1  C   -0.915561
     2  C    0.044721
     3  C   -0.206122
     4  C    0.320329
     5  C    0.136988
     6  C    0.058962
     7  H    0.126794
     8  C    0.656419
     9  C   -0.292092
    10  H    0.129154
    11  C   -0.477910
    12  C   -0.090010
    13  H    0.124307
    14  H    0.130600
    15  H    0.144574
    16  Si   0.928610
    17  H   -0.149931
    18  C   -0.841153
    19  H    0.169024
    20  H    0.167118
    21  H    0.170071
    22  C   -0.793170
    23  H    0.167793
    24  H    0.172690
    25  H    0.164837
    26  H    0.146283
    27  Br  -0.193324
 Sum of Mulliken charges =   0.00000

 Dipole moment (field-independent basis, Debye):
    X=             -1.9120    Y=              0.1449    Z=              0.2695  Tot=              1.9363
 Quadrupole moment (field-independent basis, Debye-Ang):
   XX=           -101.6878   YY=            -95.2804   ZZ=           -109.4782
   XY=              2.2835   XZ=             -1.1336   YZ=             -1.0325

  Exact polarizability: 251.541   6.717 204.279   1.819  -4.930 115.780
 Approx polarizability: 355.611  11.348 361.006   5.416 -16.926 181.142

 Summary of Natural Population Analysis:

                                       Natural Population
                Natural  -----------------------------------------------
    Atom  No    Charge         Core      Valence    Rydberg      Total
 -----------------------------------------------------------------------
      C    1   -0.19439      1.99914     4.17659    0.01865     6.19439
      C    2   -0.16986      1.99907     4.15370    0.01709     6.16986
      C    3   -0.09431      1.99882     4.07829    0.01720     6.09431
      C    4   -0.03761      1.99899     4.01819    0.02044     6.03761
      C    5   -0.42304      1.99900     4.39656    0.02747     6.42304
      C    6   -0.18558      1.99911     4.16794    0.01854     6.18558
      H    7    0.20846      0.00000     0.78999    0.00155     0.79154
      C    8   -0.06679      1.99855     4.04580    0.02245     6.06679
      C    9   -0.17218      1.99894     4.15852    0.01472     6.17218
      H   10    0.20381      0.00000     0.79454    0.00165     0.79619
      C   11   -0.19324      1.99918     4.17548    0.01858     6.19324
      C   12   -0.22726      1.99894     4.20847    0.01985     6.22726
      H   13    0.20920      0.00000     0.78895    0.00185     0.79080
      H   14    0.21166      0.00000     0.78684    0.00151     0.78834
      H   15    0.22398      0.00000     0.77439    0.00163     0.77602
     Si   16    1.35637      9.99843     2.61464    0.03056    12.64363
      H   17   -0.18074      0.00000     1.17701    0.00373     1.18074
      C   18   -1.06222      1.99935     5.05285    0.01002     7.06222
      H   19    0.23119      0.00000     0.76773    0.00109     0.76881
      H   20    0.22802      0.00000     0.77106    0.00092     0.77198
      H   21    0.23005      0.00000     0.76884    0.00111     0.76995
      C   22   -1.06802      1.99936     5.05932    0.00934     7.06802
      H   23    0.23358      0.00000     0.76555    0.00087     0.76642
      H   24    0.23330      0.00000     0.76569    0.00101     0.76670
      H   25    0.22692      0.00000     0.77191    0.00117     0.77308
      H   26    0.22274      0.00000     0.77542    0.00184     0.77726
     Br   27    0.05598     27.99929     6.92672    0.01802    34.94402
 =======================================================================
   * Total *    0.00000     61.98617    71.73097    0.28285   134.00000

                      1                      2                      3
                      A                      A                      A
 Frequencies --     40.0741                52.5121               106.4494
 Red. masses --      5.0068                 3.1816                 3.6101
 Frc consts  --      0.0047                 0.0052                 0.0241
 IR Inten    --      0.0289                 0.1014                 0.0600

                      4                      5                      6
                      A                      A                      A
 Frequencies --    123.3103               151.9086               166.3868
 Red. masses --      3.5224                 1.1439                 4.0782
 Frc consts  --      0.0316                 0.0156                 0.0665
 IR Inten    --      0.1470                 0.0953                 0.1961

                      7                      8                      9
                      A                      A                      A
 Frequencies --    172.8597               182.5830               199.9838
 Red. masses --      3.9426                 1.1228                 3.1070
 Frc consts  --      0.0694                 0.0221                 0.0732
 IR Inten    --      1.4605                 0.2165                 0.3367

                     10                     11                     12
                      A                      A                      A
 Frequencies --    206.7692               241.3978               267.1375
 Red. masses --      3.7153                 3.5078                 3.6074
 Frc consts  --      0.0936                 0.1204                 0.1517
 IR Inten    --      0.6648                 3.3351                 7.0308

                     13                     14                     15
                      A                      A                      A
 Frequencies --    306.0758               372.3720               456.7452
 Red. masses --      6.7894                 5.6856                 4.2051
 Frc consts  --      0.3747                 0.4645                 0.5169
 IR Inten    --      3.6441                 9.3876                 0.6822

                     16                     17                     18
                      A                      A                      A
 Frequencies --    463.2430               473.5844               523.3301
 Red. masses --      4.5728                 3.3541                 6.9225
 Frc consts  --      0.5782                 0.4432                 1.1170
 IR Inten    --      4.3131                 0.0684                 0.4033

                     19                     20                     21
                      A                      A                      A
 Frequencies --    554.3209               564.7842               631.4586
 Red. masses --      7.0530                 3.4308                 2.4774
 Frc consts  --      1.2769                 0.6448                 0.5820
 IR Inten    --      9.9859                 3.1826                 1.4261

                     22                     23                     24
                      A                      A                      A
 Frequencies --    644.1473               647.6657               699.9581
 Red. masses --      1.3990                 2.7729                 2.3671
 Frc consts  --      0.3420                 0.6853                 0.6833
 IR Inten    --     14.6819                16.2953                 9.5222

                     25                     26                     27
                      A                      A                      A
 Frequencies --    726.5156               745.5951               747.0579
 Red. masses --      4.6495                 1.3080                 1.5574
 Frc consts  --      1.4459                 0.4284                 0.5121
 IR Inten    --     33.4197                 3.8848                18.5345

                     28                     29                     30
                      A                      A                      A
 Frequencies --    779.4064               802.3150               805.6171
 Red. masses --      1.7474                 1.3233                 5.4045
 Frc consts  --      0.6254                 0.5019                 2.0666
 IR Inten    --     24.2566                94.9044                 2.9593

                     31                     32                     33
                      A                      A                      A
 Frequencies --    823.4591               832.3770               871.4147
 Red. masses --      2.8448                 4.2230                 1.4863
 Frc consts  --      1.1365                 1.7239                 0.6650
 IR Inten    --      1.1738                 2.9693                66.0001

                     34                     35                     36
                      A                      A                      A
 Frequencies --    904.6129               910.1442               916.3045
 Red. masses --      1.3491                 1.3318                 1.2917
 Frc consts  --      0.6505                 0.6500                 0.6390
 IR Inten    --    175.6634                66.5688                60.9530

                     37                     38                     39
                      A                      A                      A
 Frequencies --    938.4495               983.2937              1000.1230
 Red. masses --      1.3700                 1.3153                 1.3318
 Frc consts  --      0.7109                 0.7493                 0.7848
 IR Inten    --      1.0370                 1.1205                 0.4747

                     40                     41                     42
                      A                      A                      A
 Frequencies --   1006.1763              1072.5476              1099.8087
 Red. masses --      7.2554                 3.0434                 2.0766
 Frc consts  --      4.3277                 2.0628                 1.4799
 IR Inten    --    146.2650                 3.6081                 1.9012

                     43                     44                     45
                      A                      A                      A
 Frequencies --   1172.0999              1188.3142              1222.7861
 Red. masses --      1.8231                 1.2084                 1.6103
 Frc consts  --      1.4757                 1.0053                 1.4186
 IR Inten    --      1.4018                 1.7664                 2.9629

                     46                     47                     48
                      A                      A                      A
 Frequencies --   1239.1162              1243.4745              1297.5138
 Red. masses --      1.8656                 2.2058                 1.2464
 Frc consts  --      1.6877                 2.0096                 1.2363
 IR Inten    --      7.4780                 0.5766                34.1865

                     49                     50                     51
                      A                      A                      A
 Frequencies --   1305.2223              1340.3192              1363.2481
 Red. masses --      1.2273                 2.9533                 6.4758
 Frc consts  --      1.2319                 3.1259                 7.0907
 IR Inten    --     21.8373                11.7694                 4.4874

                     52                     53                     54
                      A                      A                      A
 Frequencies --   1413.0951              1425.4762              1459.2882
 Red. masses --      1.9620                 2.3337                 1.0519
 Frc consts  --      2.3083                 2.7939                 1.3197
 IR Inten    --     25.9533                 1.6691                 1.8203

                     55                     56                     57
                      A                      A                      A
 Frequencies --   1461.9767              1469.6143              1473.2258
 Red. masses --      1.0566                 1.0554                 1.0503
 Frc consts  --      1.3306                 1.3430                 1.3431
 IR Inten    --      1.2015                 6.3332                 5.7276

                     58                     59                     60
                      A                      A                      A
 Frequencies --   1486.3892              1526.5067              1592.7148
 Red. masses --      2.1636                 3.3990                 6.7307
 Frc consts  --      2.8164                 4.6666                10.0597
 IR Inten    --      6.9233                15.0295                21.7276

                     61                     62                     63
                      A                      A                      A
 Frequencies --   1623.7828              1645.2100              2189.2270
 Red. masses --      4.8452                 5.9270                 1.0402
 Frc consts  --      7.5269                 9.4521                 2.9373
 IR Inten    --      6.4006                 1.5219               125.3496

                     64                     65                     66
                      A                      A                      A
 Frequencies --   3024.9638              3025.9083              3092.0302
 Red. masses --      1.0351                 1.0348                 1.1002
 Frc consts  --      5.5806                 5.5826                 6.1975
 IR Inten    --      8.0506                 7.3566                 0.0666

                     67                     68                     69
                      A                      A                      A
 Frequencies --   3093.8926              3100.9675              3103.3849
 Red. masses --      1.0997                 1.1007                 1.0995
 Frc consts  --      6.2022                 6.2361                 6.2392
 IR Inten    --     24.5785                10.3206                11.5804

                     70                     71                     72
                      A                      A                      A
 Frequencies --   3162.1274              3174.3004              3178.4797
 Red. masses --      1.0867                 1.0870                 1.0920
 Frc consts  --      6.4021                 6.4530                 6.4999
 IR Inten    --      6.0855                 4.9109                16.7013

                     73                     74                     75
                      A                      A                      A
 Frequencies --   3194.1999              3204.1622              3205.9637
 Red. masses --      1.0924                 1.0947                 1.0930
 Frc consts  --      6.5669                 6.6215                 6.6189
 IR Inten    --      8.3529                 3.9704                 2.6817

 - Thermochemistry -
 -------------------
 Temperature   298.150 Kelvin.  Pressure   1.00000 Atm.
 Atom     1 has atomic number  6 and mass  12.00000

 Molecular mass:   263.99699 amu.
 Principal axes and moments of inertia in atomic units:
                           1         2         3
     Eigenvalues --  1635.446857918.092399214.95436
           X            0.99996   0.00782  -0.00425
           Y           -0.00779   0.99994   0.00755
           Z            0.00431  -0.00752   0.99996
 This molecule is an asymmetric top.
 Rotational symmetry number  1.
 Warning -- assumption of classical behavior for rotation
           may cause significant error
 Rotational temperatures (Kelvin)      0.05296     0.01094     0.00940
 Rotational constants (GHZ):           1.10352     0.22793     0.19585
 Zero-point vibrational energy     549763.4 (Joules/Mol)
                                  131.39660 (Kcal/Mol)
 Warning -- explicit consideration of  20 degrees of freedom as
           vibrations may cause significant error
 Vibrational temperatures:     57.66    75.55   153.16   177.42   218.56
          (Kelvin)            239.39   248.71   262.70   287.73   297.49
                              347.32   384.35   440.37   535.76   657.15
                              666.50   681.38   752.95   797.54   812.60
                              908.53   926.78   931.85  1007.08  1045.29
                             1072.74  1074.85  1121.39  1154.35  1159.10
                             1184.77  1197.60  1253.77  1301.53  1309.49
                             1318.36  1350.22  1414.74  1438.95  1447.66
                             1543.15  1582.38  1686.39  1709.72  1759.31
                             1782.81  1789.08  1866.83  1877.92  1928.42
                             1961.41  2033.13  2050.94  2099.59  2103.46
                             2114.44  2119.64  2138.58  2196.30  2291.56
                             2336.26  2367.09  3149.81  4352.24  4353.60
                             4448.74  4451.42  4461.59  4465.07  4549.59
                             4567.10  4573.12  4595.74  4610.07  4612.66

 Zero-point correction=                           0.209394 (Hartree/Particle)
 Thermal correction to Energy=                    0.223732
 Thermal correction to Enthalpy=                  0.224676
 Thermal correction to Gibbs Free Energy=         0.167330
 Sum of electronic and zero-point Energies=          -3328.715820
 Sum of electronic and thermal Energies=             -3328.701482
 Sum of electronic and thermal Enthalpies=           -3328.700538
 Sum of electronic and thermal Free Energies=        -3328.757884

                     E (Thermal)             CV                S
                      KCal/Mol        Cal/Mol-Kelvin    Cal/Mol-Kelvin
 Total                  140.394             54.772            120.695
 Electronic               0.000              0.000              0.000
 Translational            0.889              2.981             42.612
 Rotational               0.889              2.981             33.145
 Vibrational            138.616             48.810             44.938
 Vibration     1          0.594              1.981              5.255
 Vibration     2          0.596              1.977              4.720
 Vibration     3          0.605              1.944              3.333
 Vibration     4          0.610              1.930              3.048
 Vibration     5          0.619              1.901              2.648
 Vibration     6          0.624              1.884              2.476
 Vibration     7          0.626              1.876              2.404
 Vibration     8          0.630              1.863              2.302
 Vibration     9          0.638              1.840              2.133
 Vibration    10          0.641              1.830              2.072
 Vibration    11          0.658              1.777              1.793
 Vibration    12          0.672              1.733              1.615
 Vibration    13          0.696              1.662              1.383
 Vibration    14          0.744              1.529              1.070
 Vibration    15          0.815              1.346              0.776
 Vibration    16          0.821              1.332              0.757
 Vibration    17          0.830              1.309              0.728
 Vibration    18          0.878              1.198              0.602
 Vibration    19          0.910              1.130              0.535
 Vibration    20          0.921              1.107              0.514

 Normal termination of Gaussian 09 at Tue Nov  9 17:06:41 2021.
