 Gaussian 09, Revision D.01,
 Gaussian 09:  ES64L-G09RevD.01 24-Apr-2013

 ----------------------------------------------------------------------
 # opt freq b3lyp/6-311+g(d,p) geom=connectivity pop=(hirshfeld,mbs,npa
 )
 ----------------------------------------------------------------------

 -------------------
 Title Card Required
 -------------------
 Symbolic Z-matrix:
 Charge =  0 Multiplicity = 1

 SCF Done:  E(RB3LYP) =  -3012.68444422     A.U. after   15 cycles
 SCF Done:  E(RB3LYP) =  -3012.70275894     A.U. after   14 cycles
 SCF Done:  E(RB3LYP) =  -3012.70485703     A.U. after   14 cycles
 SCF Done:  E(RB3LYP) =  -3012.70497615     A.U. after   12 cycles
 SCF Done:  E(RB3LYP) =  -3012.70534881     A.U. after   12 cycles
 SCF Done:  E(RB3LYP) =  -3012.70551036     A.U. after   12 cycles
 SCF Done:  E(RB3LYP) =  -3012.70555296     A.U. after   11 cycles
 SCF Done:  E(RB3LYP) =  -3012.70555849     A.U. after   10 cycles
 SCF Done:  E(RB3LYP) =  -3012.70555889     A.U. after    9 cycles
 Optimization completed.
    -- Stationary point found.
 Normal termination of Gaussian 09 at Tue Nov  9 16:34:52 2021.

 ----------------------------------------------------------------------
 #N Geom=AllCheck Guess=TCheck SCRF=Check GenChk RB3LYP/6-311+G(d,p) Fr
 eq
 ----------------------------------------------------------------------

 Structure from the checkpoint file:  "Chart1_3.chk"
 -------------------
 Title Card Required
 -------------------
 Charge =  0 Multiplicity = 1

                         Standard orientation:
 ---------------------------------------------------------------------
 Center     Atomic      Atomic             Coordinates (Angstroms)
 Number     Number       Type             X           Y           Z
 ---------------------------------------------------------------------
      1          6           0       -0.224965   -0.891679   -0.000035
      2          6           0        1.116262   -0.509633    0.000014
      3          6           0        1.465199    0.843598   -0.000006
      4          6           0        0.540750    1.872328   -0.000008
      5          6           0       -0.802136    1.493080    0.000052
      6          6           0       -1.160240    0.137162    0.000002
      7          1           0        0.833976    2.914212    0.000080
      8          1           0       -1.575013    2.249869    0.000150
      9          6           0        3.242804   -0.403799   -0.000057
     10          8           0        2.835042    0.914027   -0.000076
     11          7           0        2.286427   -1.271112    0.000066
     12          6           0        4.706563   -0.644184    0.000027
     13          1           0        5.170234   -0.195127   -0.882464
     14          1           0        5.169892   -0.195993    0.883156
     15          1           0        4.892179   -1.716621   -0.000497
     16          1           0       -0.515672   -1.933292   -0.000019
     17         35           0       -3.027610   -0.311963   -0.000005
 ---------------------------------------------------------------------

 SCF Done:  E(RB3LYP) =  -3012.70555889     A.U. after    1 cycles

 The electronic state is 1-A.
 Alpha  occ. eigenvalues -- -482.83249 -62.48533 -56.30571 -56.30179 -56.30170
 Alpha  occ. eigenvalues --  -19.21140 -14.32740 -10.28888 -10.25012 -10.24285
 Alpha  occ. eigenvalues --  -10.22379 -10.20507 -10.20156 -10.20081 -10.19904
 Alpha  occ. eigenvalues --   -8.69500  -6.52647  -6.51341  -6.51325  -2.63739
 Alpha  occ. eigenvalues --   -2.63362  -2.63353  -2.62315  -2.62315  -1.14728
 Alpha  occ. eigenvalues --   -0.94744  -0.88872  -0.82186  -0.78943  -0.76377
 Alpha  occ. eigenvalues --   -0.72358  -0.63895  -0.63500  -0.61084  -0.53405
 Alpha  occ. eigenvalues --   -0.52806  -0.50360  -0.48677  -0.46991  -0.44328
 Alpha  occ. eigenvalues --   -0.43658  -0.42878  -0.42545  -0.38992  -0.38957
 Alpha  occ. eigenvalues --   -0.37727  -0.34925  -0.31559  -0.30939  -0.29620
 Alpha  occ. eigenvalues --   -0.26130  -0.24802
 Alpha virt. eigenvalues --   -0.04987  -0.02290  -0.02010  -0.00322   0.00648
 Alpha virt. eigenvalues --    0.01159   0.02031   0.02989   0.04089   0.04363
 Alpha virt. eigenvalues --    0.04645   0.05416   0.05612   0.06233   0.07181

 Mulliken charges:
               1
     1  C   -1.310339
     2  C    0.875643
     3  C    0.308260
     4  C   -0.713747
     5  C   -0.365783
     6  C    0.598775
     7  H    0.136282
     8  H    0.151038
     9  C    0.191210
    10  O   -0.082315
    11  N   -0.084333
    12  C   -0.214601
    13  H    0.166737
    14  H    0.166753
    15  H    0.176881
    16  H    0.149905
    17  Br  -0.150364
 Sum of Mulliken charges =   0.00000

 Dipole moment (field-independent basis, Debye):
    X=              2.5491    Y=              1.4641    Z=              0.0001  Tot=              2.9396
 Quadrupole moment (field-independent basis, Debye-Ang):
   XX=            -66.2075   YY=            -74.5348   ZZ=            -78.1926
   XY=             -0.2459   XZ=             -0.0001   YZ=              0.0009

  Exact polarizability: 187.911  -3.053 113.311   0.009  -0.004  68.879
 Approx polarizability: 262.935   2.626 197.417   0.000   0.000 106.381

 Summary of Natural Population Analysis:

                                       Natural Population
                Natural  -----------------------------------------------
    Atom  No    Charge         Core      Valence    Rydberg      Total
 -----------------------------------------------------------------------
      C    1   -0.22002      1.99887     4.20282    0.01833     6.22002
      C    2    0.09670      1.99887     3.87933    0.02510     5.90330
      C    3    0.27234      1.99867     3.70567    0.02332     5.72766
      C    4   -0.22408      1.99905     4.20893    0.01609     6.22408
      C    5   -0.22396      1.99899     4.20584    0.01913     6.22396
      C    6   -0.10870      1.99868     4.08796    0.02206     6.10870
      H    7    0.22752      0.00000     0.77073    0.00174     0.77248
      H    8    0.22619      0.00000     0.77219    0.00162     0.77381
      C    9    0.56531      1.99924     3.39935    0.03609     5.43469
      O   10   -0.48613      1.99971     6.47074    0.01568     8.48613
      N   11   -0.48602      1.99932     5.46877    0.01792     7.48602
      C   12   -0.63160      1.99926     4.62349    0.00885     6.63160
      H   13    0.22899      0.00000     0.76956    0.00145     0.77101
      H   14    0.22899      0.00000     0.76956    0.00145     0.77101
      H   15    0.23686      0.00000     0.76179    0.00135     0.76314
      H   16    0.23471      0.00000     0.76152    0.00376     0.76529
     Br   17    0.06290     27.99927     6.91901    0.01882    34.93710
 =======================================================================
   * Total *    0.00000     47.98992    55.77729    0.23278   104.00000

                      1                      2                      3
                      A                      A                      A
 Frequencies --     80.7128               104.4000               167.8434
 Red. masses --      3.0766                 1.2050                 5.9627
 Frc consts  --      0.0118                 0.0077                 0.0990
 IR Inten    --      1.4384                 0.0583                 0.4910

                      4                      5                      6
                      A                      A                      A
 Frequencies --    172.9385               262.0544               282.0634
 Red. masses --      4.9836                 9.9065                 5.4378
 Frc consts  --      0.0878                 0.4008                 0.2549
 IR Inten    --      1.1691                 0.6559                 0.4465

                      7                      8                      9
                      A                      A                      A
 Frequencies --    306.4109               353.8310               429.2057
 Red. masses --      3.7678                 6.1976                 2.9105
 Frc consts  --      0.2084                 0.4572                 0.3159
 IR Inten    --      4.3195                 0.8398                 4.9067

                     10                     11                     12
                      A                      A                      A
 Frequencies --    491.2658               545.1112               595.4255
 Red. masses --      4.5343                 5.3670                 4.0764
 Frc consts  --      0.6448                 0.9396                 0.8515
 IR Inten    --      0.4462                 4.3487                 6.1062

                     13                     14                     15
                      A                      A                      A
 Frequencies --    669.1106               689.3696               691.7467
 Red. masses --      4.8852                 5.8655                 7.5977
 Frc consts  --      1.2886                 1.6423                 2.1420
 IR Inten    --      1.6134                 3.1729                19.4332

                     16                     17                     18
                      A                      A                      A
 Frequencies --    753.1828               814.3020               855.2804
 Red. masses --      4.6549                 1.4859                 5.8054
 Frc consts  --      1.5558                 0.5805                 2.5021
 IR Inten    --      1.9940                36.7520                20.0239

                     19                     20                     21
                      A                      A                      A
 Frequencies --    884.4635               912.0629               935.7025
 Red. masses --      1.3904                 4.7717                 6.8031
 Frc consts  --      0.6409                 2.3387                 3.5094
 IR Inten    --     15.4475                56.9111                24.0273

                     22                     23                     24
                      A                      A                      A
 Frequencies --    949.3148              1037.5430              1056.5422
 Red. masses --      1.3162                 1.9965                 1.9934
 Frc consts  --      0.6989                 1.2663                 1.3110
 IR Inten    --      0.8754                 1.4378                15.9594

                     25                     26                     27
                      A                      A                      A
 Frequencies --   1064.3470              1137.4175              1185.9698
 Red. masses --      1.5596                 1.7412                 2.6660
 Frc consts  --      1.0410                 1.3272                 2.2093
 IR Inten    --      2.6786                11.6572                59.1071

                     28                     29                     30
                      A                      A                      A
 Frequencies --   1247.8381              1278.8277              1284.5965
 Red. masses --      3.6889                 1.6293                 4.7388
 Frc consts  --      3.3842                 1.5699                 4.6073
 IR Inten    --     20.5020                32.5145                34.5033

                     31                     32                     33
                      A                      A                      A
 Frequencies --   1357.0862              1413.8284              1450.7442
 Red. masses --      5.4747                 1.3482                 4.1022
 Frc consts  --      5.9406                 1.5878                 5.0869
 IR Inten    --      1.5376                 6.1479                14.9519

                     34                     35                     36
                      A                      A                      A
 Frequencies --   1474.0709              1474.4015              1480.7792
 Red. masses --      1.0423                 1.4766                 1.6104
 Frc consts  --      1.3344                 1.8912                 2.0805
 IR Inten    --     10.1097                81.4759                31.3750

                     37                     38                     39
                      A                      A                      A
 Frequencies --   1607.5828              1642.2067              1656.0524
 Red. masses --      8.0946                 8.6249                 8.1161
 Frc consts  --     12.3252                13.7044                13.1143
 IR Inten    --    100.0993                 9.9682                26.1158

                     40                     41                     42
                      A                      A                      A
 Frequencies --   3041.4959              3093.6510              3150.5083
 Red. masses --      1.0380                 1.1003                 1.1001
 Frc consts  --      5.6575                 6.2047                 6.4335
 IR Inten    --     10.9137                 5.8838                 2.3479

                     43                     44                     45
                      A                      A                      A
 Frequencies --   3197.7488              3211.2999              3215.2175
 Red. masses --      1.0893                 1.0953                 1.0930
 Frc consts  --      6.5625                 6.6550                 6.6570
 IR Inten    --      0.4833                 0.9861                 0.2677

 - Thermochemistry -
 -------------------
 Temperature   298.150 Kelvin.  Pressure   1.00000 Atm.
 Atom     1 has atomic number  6 and mass  12.00000

 Molecular mass:   210.96327 amu.
 Principal axes and moments of inertia in atomic units:
                           1         2         3
     Eigenvalues --   580.539965218.211375787.53172
           X            0.99990  -0.01394   0.00000
           Y            0.01394   0.99990   0.00000
           Z            0.00000   0.00000   1.00000
 This molecule is an asymmetric top.
 Rotational symmetry number  1.
 Warning -- assumption of classical behavior for rotation
           may cause significant error
 Rotational temperatures (Kelvin)      0.14920     0.01660     0.01497
 Rotational constants (GHZ):           3.10873     0.34585     0.31183
 Zero-point vibrational energy     321230.5 (Joules/Mol)
                                   76.77594 (Kcal/Mol)
 Warning -- explicit consideration of  12 degrees of freedom as
           vibrations may cause significant error
 Vibrational temperatures:    116.13   150.21   241.49   248.82   377.04
          (Kelvin)            405.83   440.86   509.08   617.53   706.82
                              784.29   856.68   962.70   991.85   995.27
                             1083.66  1171.60  1230.56  1272.54  1312.25
                             1346.27  1365.85  1492.79  1520.13  1531.36
                             1636.49  1706.34  1795.36  1839.95  1848.25
                             1952.54  2034.18  2087.29  2120.86  2121.33
                             2130.51  2312.95  2362.77  2382.69  4376.03
                             4451.07  4532.87  4600.84  4620.34  4625.98

 Zero-point correction=                           0.122350 (Hartree/Particle)
 Thermal correction to Energy=                    0.131453
 Thermal correction to Enthalpy=                  0.132397
 Thermal correction to Gibbs Free Energy=         0.086699
 Sum of electronic and zero-point Energies=          -3012.583209
 Sum of electronic and thermal Energies=             -3012.574106
 Sum of electronic and thermal Enthalpies=           -3012.573161
 Sum of electronic and thermal Free Energies=        -3012.618860

                     E (Thermal)             CV                S
                      KCal/Mol        Cal/Mol-Kelvin    Cal/Mol-Kelvin
 Total                   82.488             34.194             96.181
 Electronic               0.000              0.000              0.000
 Translational            0.889              2.981             41.943
 Rotational               0.889              2.981             31.239
 Vibrational             80.711             28.232             22.998
 Vibration     1          0.600              1.962              3.873
 Vibration     2          0.605              1.946              3.370
 Vibration     3          0.625              1.882              2.460
 Vibration     4          0.626              1.876              2.403
 Vibration     5          0.669              1.742              1.648
 Vibration     6          0.681              1.707              1.521
 Vibration     7          0.697              1.662              1.382
 Vibration     8          0.730              1.567              1.149
 Vibration     9          0.791              1.407              0.861
 Vibration    10          0.847              1.269              0.680
 Vibration    11          0.900              1.150              0.554
 Vibration    12          0.953              1.042              0.458

 Optimization completed.
    -- Stationary point found.
 Normal termination of Gaussian 09 at Tue Nov  9 16:37:26 2021.
