 Gaussian 09, Revision D.01,
 Gaussian 09:  ES64L-G09RevD.01 24-Apr-2013

 ----------------------------------------------------------------------
 # opt=rcfc freq=noraman b3lyp/6-311+g(d,p) pop=(npa,hirshfeld,chelpg,m
 bs) geom=allcheck guess=read
 ----------------------------------------------------------------------

 Structure from the checkpoint file:  "regiodevergent1j_Ishiyana.chk"
 -------------------
 Title Card Required
 -------------------
 Charge =  0 Multiplicity = 1

 SCF Done:  E(RB3LYP) =  -997.071989379     A.U. after    1 cycles
 SCF Done:  E(RB3LYP) =  -997.071989423     A.U. after    8 cycles
 Optimization completed.
    -- Stationary point found.
 Normal termination of Gaussian 09 at Thu Feb  2 16:33:30 2023.

 ----------------------------------------------------------------------
 #N Geom=AllCheck Guess=TCheck SCRF=Check GenChk RB3LYP/6-311+G(d,p) Fr
 eq
 ----------------------------------------------------------------------

 Structure from the checkpoint file:  "regiodevergent1j_Ishiyana.chk"
 -------------------
 Title Card Required
 -------------------
 Charge =  0 Multiplicity = 1

                         Standard orientation:
 ---------------------------------------------------------------------
 Center     Atomic      Atomic             Coordinates (Angstroms)
 Number     Number       Type             X           Y           Z
 ---------------------------------------------------------------------
      1          6           0       -3.324241    0.048340    0.394143
      2          6           0       -2.568420    0.646704    1.370259
      3          6           0       -1.170362    0.462276    1.194718
      4          6           0       -0.856628   -0.273908    0.079985
      5          1           0       -3.005159    1.195497    2.195595
      6          1           0       -0.419160    0.825572    1.881036
      7          6           0       -4.816584    0.041218    0.257423
      8          1           0       -5.139121    0.492274   -0.685718
      9          1           0       -5.220858   -0.974752    0.291330
     10          1           0       -5.266299    0.609998    1.073724
     11          6           0        0.453835   -0.779924   -0.384741
     12          8           0        0.521854   -1.850808   -0.974551
     13          7           0        1.577500   -0.017302   -0.041031
     14          6           0        2.865839   -0.776644    0.024434
     15          1           0        3.153199   -1.076251   -0.993417
     16          6           0        1.673437    1.380629   -0.592506
     17          1           0        2.669810    1.422747   -1.036059
     18          6           0        2.724925   -2.039875    0.887284
     19          1           0        2.387890   -1.772147    1.893656
     20          1           0        2.030715   -2.759689    0.462292
     21          1           0        3.702080   -2.521351    0.977747
     22          6           0        3.996682    0.071665    0.627347
     23          1           0        4.906175   -0.533235    0.651179
     24          1           0        4.230638    0.975147    0.063660
     25          1           0        3.760610    0.359342    1.655827
     26          6           0        1.601991    2.467817    0.486403
     27          1           0        2.263454    2.245155    1.324955
     28          1           0        1.901209    3.432105    0.063338
     29          1           0        0.585022    2.575711    0.868512
     30          6           0        0.710223    1.684713   -1.750209
     31          1           0        0.748311    0.907110   -2.516985
     32          1           0       -0.322627    1.794596   -1.418483
     33          1           0        1.012202    2.627552   -2.214568
     34         16           0       -2.308726   -0.780991   -0.751328
 ---------------------------------------------------------------------

 SCF Done:  E(RB3LYP) =  -997.071989423     A.U. after    2 cycles

 The electronic state is 1-A.
 Alpha  occ. eigenvalues --  -88.87714 -19.09474 -14.32843 -10.27754 -10.21945
 Alpha  occ. eigenvalues --  -10.21721 -10.21052 -10.20572 -10.18675 -10.18664
 Alpha  occ. eigenvalues --  -10.18061 -10.16615 -10.16525 -10.16479 -10.15128
 Alpha  occ. eigenvalues --   -7.96325  -5.92610  -5.92239  -5.91924  -1.04367
 Alpha  occ. eigenvalues --   -0.92591  -0.88999  -0.79833  -0.78239  -0.76280
 Alpha  occ. eigenvalues --   -0.74231  -0.70084  -0.69625  -0.68707  -0.63167
 Alpha  occ. eigenvalues --   -0.60369  -0.57851  -0.54595  -0.52338  -0.50949
 Alpha  occ. eigenvalues --   -0.49922  -0.46849  -0.46296  -0.44139  -0.43977
 Alpha  occ. eigenvalues --   -0.43646  -0.42465  -0.41723  -0.41284  -0.40789
 Alpha  occ. eigenvalues --   -0.39969  -0.39080  -0.38793  -0.38489  -0.37198
 Alpha  occ. eigenvalues --   -0.36733  -0.36083  -0.35676  -0.34690  -0.34569
 Alpha  occ. eigenvalues --   -0.34195  -0.33621  -0.26835  -0.25844  -0.23987
 Alpha  occ. eigenvalues --   -0.23810
 Alpha virt. eigenvalues --   -0.05556  -0.00502   0.00214   0.01183   0.01268
 Alpha virt. eigenvalues --    0.01788   0.01961   0.02559   0.03218   0.03924
 Alpha virt. eigenvalues --    0.04190   0.04344   0.04748   0.05093   0.05466

 Mulliken charges:
               1
     1  C    0.011607
     2  C   -0.098960
     3  C   -0.303022
     4  C    1.195536
     5  H    0.123069
     6  H    0.139718
     7  C   -0.654168
     8  H    0.162127
     9  H    0.163025
    10  H    0.149243
    11  C   -0.702355
    12  O   -0.233988
    13  N    0.377264
    14  C   -0.187842
    15  H    0.152339
    16  C    0.036900
    17  H    0.136441
    18  C   -0.400014
    19  H    0.143356
    20  H    0.180448
    21  H    0.133266
    22  C   -0.463775
    23  H    0.148566
    24  H    0.135752
    25  H    0.150654
    26  C   -0.468694
    27  H    0.145087
    28  H    0.137550
    29  H    0.136629
    30  C   -0.636270
    31  H    0.163051
    32  H    0.181772
    33  H    0.143498
    34  S   -0.297809
 Sum of Mulliken charges =   0.00000

 Dipole moment (field-independent basis, Debye):
    X=             -0.3451    Y=              3.2077    Z=              1.3050  Tot=              3.4801
 Quadrupole moment (field-independent basis, Debye-Ang):
   XX=            -84.6301   YY=           -105.8928   ZZ=           -100.9151
   XY=              0.5409   XZ=             -1.7673   YZ=             -2.6341

  Exact polarizability: 223.567  -1.939 154.275  -0.228  12.254 146.391
 Approx polarizability: 295.560  -4.266 241.903  -2.474  44.833 250.234

 ESP charges:
               1
     1  C    0.149401
     2  C   -0.285344
     3  C    0.030501
     4  C   -0.239569
     5  H    0.142499
     6  H    0.082193
     7  C   -0.163243
     8  H    0.070041
     9  H    0.073663
    10  H    0.055439
    11  C    0.860572
    12  O   -0.577019
    13  N   -0.836108
    14  C    0.632723
    15  H   -0.083305
    16  C    0.765630
    17  H   -0.107949
    18  C   -0.316192
    19  H    0.048656
    20  H    0.087133
    21  H    0.065370
    22  C   -0.358491
    23  H    0.070428
    24  H    0.074768
    25  H    0.088479
    26  C   -0.324317
    27  H    0.071825
    28  H    0.040566
    29  H    0.061016
    30  C   -0.316272
    31  H    0.066985
    32  H    0.044978
    33  H    0.048786
    34  S   -0.023843
 Sum of ESP charges =   0.00000

 Summary of Natural Population Analysis:

                                       Natural Population
                Natural  -----------------------------------------------
    Atom  No    Charge         Core      Valence    Rydberg      Total
 -----------------------------------------------------------------------
      C    1   -0.17664      1.99905     4.15587    0.02172     6.17664
      C    2   -0.27089      1.99894     4.25372    0.01823     6.27089
      C    3   -0.21074      1.99898     4.19392    0.01784     6.21074
      C    4   -0.29332      1.99888     4.26929    0.02516     6.29332
      H    5    0.21722      0.00000     0.78106    0.00173     0.78278
      H    6    0.22750      0.00000     0.77042    0.00208     0.77250
      C    7   -0.60345      1.99926     4.59237    0.01182     6.60345
      H    8    0.21829      0.00000     0.78032    0.00140     0.78171
      H    9    0.21927      0.00000     0.77932    0.00141     0.78073
      H   10    0.21723      0.00000     0.78142    0.00135     0.78277
      C   11    0.66983      1.99912     3.28460    0.04645     5.33017
      O   12   -0.60697      1.99976     6.59575    0.01146     8.60697
      N   13   -0.56694      1.99927     5.54026    0.02741     7.56694
      C   14   -0.01306      1.99924     3.99604    0.01777     6.01306
      H   15    0.18864      0.00000     0.80808    0.00327     0.81136
      C   16   -0.01167      1.99921     3.99528    0.01718     6.01167
      H   17    0.19194      0.00000     0.80534    0.00272     0.80806
      C   18   -0.58483      1.99932     4.57548    0.01003     6.58483
      H   19    0.19654      0.00000     0.80162    0.00184     0.80346
      H   20    0.23189      0.00000     0.76654    0.00158     0.76811
      H   21    0.20038      0.00000     0.79832    0.00129     0.79962
      C   22   -0.58006      1.99932     4.57106    0.00968     6.58006
      H   23    0.20916      0.00000     0.78958    0.00127     0.79084
      H   24    0.19770      0.00000     0.80098    0.00132     0.80230
      H   25    0.19963      0.00000     0.79847    0.00190     0.80037
      C   26   -0.57966      1.99931     4.57030    0.01005     6.57966
      H   27    0.20580      0.00000     0.79280    0.00140     0.79420
      H   28    0.19992      0.00000     0.79874    0.00134     0.80008
      H   29    0.20175      0.00000     0.79636    0.00189     0.79825
      C   30   -0.59131      1.99931     4.58236    0.00964     6.59131
      H   31    0.21330      0.00000     0.78552    0.00118     0.78670
      H   32    0.21057      0.00000     0.78790    0.00153     0.78943
      H   33    0.20734      0.00000     0.79143    0.00123     0.79266
      S   34    0.46563      9.99875     5.49541    0.04021    15.53437
 =======================================================================
   * Total *    0.00000     37.98771    83.68593    0.32636   122.00000

                      1                      2                      3
                      A                      A                      A
 Frequencies --     29.4298                46.1426                58.7282
 Red. masses --      2.6479                 3.8468                 3.0630
 Frc consts  --      0.0014                 0.0048                 0.0062
 IR Inten    --      0.4612                 1.1028                 0.6975

                      4                      5                      6
                      A                      A                      A
 Frequencies --     82.2260                90.3828               101.4738
 Red. masses --      2.6180                 1.2052                 4.3848
 Frc consts  --      0.0104                 0.0058                 0.0266
 IR Inten    --      0.6562                 0.4763                 1.4288

                      7                      8                      9
                      A                      A                      A
 Frequencies --    121.2635               166.1866               183.1695
 Red. masses --      3.7977                 2.2338                 3.1180
 Frc consts  --      0.0329                 0.0363                 0.0616
 IR Inten    --      3.7337                 1.2882                 0.4817

                     10                     11                     12
                      A                      A                      A
 Frequencies --    200.9700               233.7070               241.6844
 Red. masses --      1.7051                 1.6559                 1.5379
 Frc consts  --      0.0406                 0.0533                 0.0529
 IR Inten    --      1.7510                 1.4468                 1.7165

                     13                     14                     15
                      A                      A                      A
 Frequencies --    256.0683               274.8724               298.2579
 Red. masses --      1.1688                 1.2971                 3.0809
 Frc consts  --      0.0452                 0.0577                 0.1615
 IR Inten    --      0.1533                 1.2138                 1.9463

                     16                     17                     18
                      A                      A                      A
 Frequencies --    311.1583               317.2278               338.3835
 Red. masses --      2.7510                 3.3351                 2.7741
 Frc consts  --      0.1569                 0.1977                 0.1871
 IR Inten    --      0.5066                 0.5077                 3.2057

                     19                     20                     21
                      A                      A                      A
 Frequencies --    375.1119               393.4025               438.3855
 Red. masses --      3.6123                 3.0771                 2.4829
 Frc consts  --      0.2995                 0.2806                 0.2811
 IR Inten    --      7.5419                 1.2637                 1.5059

                     22                     23                     24
                      A                      A                      A
 Frequencies --    448.3336               467.9562               512.5380
 Red. masses --      3.7225                 2.5192                 5.0666
 Frc consts  --      0.4408                 0.3250                 0.7842
 IR Inten    --      4.6609                 8.3269                 4.5337

                     25                     26                     27
                      A                      A                      A
 Frequencies --    539.2029               581.4409               606.5699
 Red. masses --      2.9465                 3.2691                 4.3792
 Frc consts  --      0.5047                 0.6512                 0.9493
 IR Inten    --      0.9047                 2.9292                 1.9087

                     28                     29                     30
                      A                      A                      A
 Frequencies --    664.0512               691.4394               738.1784
 Red. masses --      4.2386                 5.8912                 6.0774
 Frc consts  --      1.1012                 1.6594                 1.9511
 IR Inten    --      3.2509                 2.0779                 2.7705

                     31                     32                     33
                      A                      A                      A
 Frequencies --    778.5617               802.5518               826.3277
 Red. masses --      4.8562                 2.7032                 1.6094
 Frc consts  --      1.7343                 1.0258                 0.6475
 IR Inten    --     14.4623                54.7757                23.7920

                     34                     35                     36
                      A                      A                      A
 Frequencies --    870.7789               909.8987               914.8262
 Red. masses --      2.8549                 1.8997                 1.6791
 Frc consts  --      1.2754                 0.9267                 0.8280
 IR Inten    --      5.0723                 2.1850                 2.2584

                     37                     38                     39
                      A                      A                      A
 Frequencies --    932.3916               936.9133               948.6139
 Red. masses --      1.2143                 1.1758                 1.4308
 Frc consts  --      0.6220                 0.6081                 0.7586
 IR Inten    --      1.7491                 2.9983                 1.4600

                     40                     41                     42
                      A                      A                      A
 Frequencies --    955.5910               984.1904              1026.7134
 Red. masses --      1.4907                 1.7195                 2.5107
 Frc consts  --      0.8020                 0.9813                 1.5593
 IR Inten    --      0.0797                 5.5115                12.4447

                     43                     44                     45
                      A                      A                      A
 Frequencies --   1043.6620              1056.7962              1082.4627
 Red. masses --      1.9869                 1.4230                 1.6537
 Frc consts  --      1.2751                 0.9364                 1.1416
 IR Inten    --     32.3527                 0.8875                53.9301

                     46                     47                     48
                      A                      A                      A
 Frequencies --   1125.1870              1145.0879              1158.4854
 Red. masses --      1.7897                 2.2889                 2.0648
 Frc consts  --      1.3350                 1.7683                 1.6327
 IR Inten    --     10.8376                 9.0479                12.2074

                     49                     50                     51
                      A                      A                      A
 Frequencies --   1174.9928              1182.9082              1198.8329
 Red. masses --      4.0761                 2.0450                 2.4087
 Frc consts  --      3.3156                 1.6860                 2.0397
 IR Inten    --     12.3401                33.4465                65.0390

                     52                     53                     54
                      A                      A                      A
 Frequencies --   1201.7218              1240.2580              1285.6026
 Red. masses --      2.5661                 1.4716                 3.1845
 Frc consts  --      2.1834                 1.3337                 3.1010
 IR Inten    --      8.3136                 2.2924               412.7285

                     55                     56                     57
                      A                      A                      A
 Frequencies --   1346.9713              1350.9458              1353.4965
 Red. masses --      1.5183                 1.3130                 2.2184
 Frc consts  --      1.6230                 1.4119                 2.3944
 IR Inten    --     16.3705                14.0917                 4.7931

                     58                     59                     60
                      A                      A                      A
 Frequencies --   1356.8263              1399.1142              1401.5066
 Red. masses --      1.4171                 1.2636                 1.2471
 Frc consts  --      1.5371                 1.4574                 1.4432
 IR Inten    --      4.3222                 8.8299                20.7723

                     61                     62                     63
                      A                      A                      A
 Frequencies --   1417.0640              1420.5516              1423.3801
 Red. masses --      1.2371                 1.2395                 1.2258
 Frc consts  --      1.4637                 1.4737                 1.4632
 IR Inten    --      0.6287                14.7706                12.4571

                     64                     65                     66
                      A                      A                      A
 Frequencies --   1435.4992              1479.7378              1482.6761
 Red. masses --      1.3914                 1.0410                 1.0593
 Frc consts  --      1.6893                 1.3430                 1.3720
 IR Inten    --     31.6983                 9.2514                 7.3317

                     67                     68                     69
                      A                      A                      A
 Frequencies --   1486.5447              1487.5743              1495.7988
 Red. masses --      1.0456                 1.3817                 1.0544
 Frc consts  --      1.3613                 1.8014                 1.3900
 IR Inten    --      3.1756                37.2584                 1.9410

                     70                     71                     72
                      A                      A                      A
 Frequencies --   1501.1294              1503.7214              1506.3530
 Red. masses --      1.0428                 1.0524                 1.0580
 Frc consts  --      1.3845                 1.4021                 1.4144
 IR Inten    --      2.7858                 8.4288                 4.6000

                     73                     74                     75
                      A                      A                      A
 Frequencies --   1507.7419              1517.2617              1526.7580
 Red. masses --      2.6369                 1.0797                 1.0479
 Frc consts  --      3.5318                 1.4645                 1.4392
 IR Inten    --     88.0069                32.8724                19.7336

                     76                     77                     78
                      A                      A                      A
 Frequencies --   1582.5079              1680.3593              2982.5436
 Red. masses --      5.0267                11.2871                 1.0832
 Frc consts  --      7.4170                18.7775                 5.6772
 IR Inten    --      5.0748               256.3604                31.6723

                     79                     80                     81
                      A                      A                      A
 Frequencies --   3026.4719              3029.8977              3030.6782
 Red. masses --      1.0360                 1.0392                 1.0396
 Frc consts  --      5.5910                 5.6210                 5.6259
 IR Inten    --     34.2529                 9.2361                23.5262

                     82                     83                     84
                      A                      A                      A
 Frequencies --   3036.9948              3037.2741              3056.1285
 Red. masses --      1.0403                 1.0383                 1.0832
 Frc consts  --      5.6532                 5.6433                 5.9609
 IR Inten    --     35.6538                22.1382                10.9248

                     85                     86                     87
                      A                      A                      A
 Frequencies --   3075.8383              3086.5109              3092.5349
 Red. masses --      1.1009                 1.1009                 1.0980
 Frc consts  --      6.1367                 6.1794                 6.1873
 IR Inten    --     10.6823                 9.3435                 2.7642

                     88                     89                     90
                      A                      A                      A
 Frequencies --   3096.7483              3098.9996              3104.8782
 Red. masses --      1.0998                 1.0997                 1.1007
 Frc consts  --      6.2138                 6.2228                 6.2519
 IR Inten    --     37.6386                68.8599                12.0959

                     91                     92                     93
                      A                      A                      A
 Frequencies --   3111.9114              3117.5617              3122.8559
 Red. masses --      1.0989                 1.1022                 1.1002
 Frc consts  --      6.2700                 6.3117                 6.3219
 IR Inten    --     38.1392                13.3067                36.5030

                     94                     95                     96
                      A                      A                      A
 Frequencies --   3155.1279              3190.0964              3226.2942
 Red. masses --      1.0959                 1.0917                 1.0944
 Frc consts  --      6.4276                 6.5460                 6.7118
 IR Inten    --      6.1282                10.5732                 1.5504

 - Thermochemistry -
 -------------------
 Temperature   298.150 Kelvin.  Pressure   1.00000 Atm.
 Atom     1 has atomic number  6 and mass  12.00000

 Molecular mass:   225.11874 amu.
 Principal axes and moments of inertia in atomic units:
                           1         2         3
     Eigenvalues --  1816.147665524.989686119.47364
           X            0.99999  -0.00370   0.00190
           Y            0.00378   0.99886  -0.04765
           Z           -0.00172   0.04765   0.99886
 This molecule is an asymmetric top.
 Rotational symmetry number  1.
 Warning -- assumption of classical behavior for rotation
           may cause significant error
 Rotational temperatures (Kelvin)      0.04769     0.01568     0.01415
 Rotational constants (GHZ):           0.99372     0.32665     0.29492
 Zero-point vibrational energy     759234.9 (Joules/Mol)
                                  181.46150 (Kcal/Mol)
 Warning -- explicit consideration of  27 degrees of freedom as
           vibrations may cause significant error
 Vibrational temperatures:     42.34    66.39    84.50   118.30   130.04
          (Kelvin)            146.00   174.47   239.11   263.54   289.15
                              336.25   347.73   368.42   395.48   429.13
                              447.69   456.42   486.86   539.70   566.02
                              630.74   645.05   673.28   737.43   775.79
                              836.56   872.72   955.42   994.83  1062.07
                             1120.18  1154.69  1188.90  1252.86  1309.14
                             1316.23  1341.50  1348.01  1364.84  1374.88
                             1416.03  1477.21  1501.60  1520.49  1557.42
                             1618.89  1647.52  1666.80  1690.55  1701.94
                             1724.85  1729.01  1784.45  1849.69  1937.99
                             1943.71  1947.38  1952.17  2013.01  2016.45
                             2038.84  2043.85  2047.92  2065.36  2129.01
                             2133.24  2138.80  2140.28  2152.12  2159.79
                             2163.52  2167.30  2169.30  2183.00  2196.66
                             2276.87  2417.66  4291.21  4354.41  4359.34
                             4360.46  4369.55  4369.95  4397.08  4425.44
                             4440.80  4449.46  4455.52  4458.76  4467.22
                             4477.34  4485.47  4493.09  4539.52  4589.83
                             4641.91

 Zero-point correction=                           0.289177 (Hartree/Particle)
 Thermal correction to Energy=                    0.306357
 Thermal correction to Enthalpy=                  0.307301
 Thermal correction to Gibbs Free Energy=         0.244018
 Sum of electronic and zero-point Energies=           -996.782812
 Sum of electronic and thermal Energies=              -996.765633
 Sum of electronic and thermal Enthalpies=            -996.764688
 Sum of electronic and thermal Free Energies=         -996.827971

                     E (Thermal)             CV                S
                      KCal/Mol        Cal/Mol-Kelvin    Cal/Mol-Kelvin
 Total                  192.242             63.801            133.189
 Electronic               0.000              0.000              0.000
 Translational            0.889              2.981             42.137
 Rotational               0.889              2.981             32.485
 Vibrational            190.464             57.840             58.568
 Vibration     1          0.593              1.984              5.867
 Vibration     2          0.595              1.979              4.976
 Vibration     3          0.596              1.974              4.499
 Vibration     4          0.600              1.961              3.837
 Vibration     5          0.602              1.956              3.652
 Vibration     6          0.604              1.948              3.426
 Vibration     7          0.609              1.931              3.080
 Vibration     8          0.624              1.884              2.478
 Vibration     9          0.631              1.863              2.296
 Vibration    10          0.638              1.839              2.124
 Vibration    11          0.654              1.789              1.850
 Vibration    12          0.658              1.776              1.790
 Vibration    13          0.666              1.753              1.688
 Vibration    14          0.677              1.720              1.565
 Vibration    15          0.691              1.677              1.427
 Vibration    16          0.700              1.652              1.356
 Vibration    17          0.704              1.641              1.324
 Vibration    18          0.719              1.599              1.220
 Vibration    19          0.746              1.523              1.059
 Vibration    20          0.761              1.484              0.987
 Vibration    21          0.799              1.386              0.832
 Vibration    22          0.807              1.365              0.801
 Vibration    23          0.825              1.321              0.743
 Vibration    24          0.868              1.222              0.628
 Vibration    25          0.894              1.163              0.567
 Vibration    26          0.938              1.071              0.483
 Vibration    27          0.965              1.018              0.438

 Optimization completed.
    -- Stationary point found.
 Normal termination of Gaussian 09 at Thu Feb  2 16:47:22 2023.
