 Gaussian 09, Revision D.01,
 Gaussian 09:  ES64L-G09RevD.01 24-Apr-2013

 ---------------------------------------------------------------------
 # b3lyp/6-311+g(d,p) geom=connectivity pop=(hirshfeld,chelpg,mbs,npa)
 ---------------------------------------------------------------------

 --------
 Table6_5
 --------
 Symbolic Z-matrix:
 Charge =  0 Multiplicity = 1

                         Standard orientation:
 ---------------------------------------------------------------------
 Center     Atomic      Atomic             Coordinates (Angstroms)
 Number     Number       Type             X           Y           Z
 ---------------------------------------------------------------------
      1          6           0       -0.194499   -0.166040   -0.000126
      2          6           0        0.338509    1.090265   -0.000044
      3          6           0        1.764837    0.890836    0.000056
      4          6           0        1.974566   -0.446340    0.000036
      5          8           0        0.766912   -1.111782    0.000004
      6          1           0       -0.193476    2.026157   -0.000432
      7          1           0        2.525188    1.655803    0.000109
      8          1           0        2.848672   -1.072862    0.000235
      9          8           0       -1.433783   -0.667468   -0.000105
     10          6           0       -2.480339    0.302106    0.000128
     11          1           0       -3.411109   -0.260817    0.000097
     12          1           0       -2.426311    0.930212    0.895056
     13          1           0       -2.426449    0.930539   -0.894553
 ---------------------------------------------------------------------

 SCF Done:  E(RB3LYP) =  -344.643932100     A.U. after   13 cycles

 The electronic state is 1-A.
 Alpha  occ. eigenvalues --  -19.18989 -19.17434 -10.28355 -10.23854 -10.21750
 Alpha  occ. eigenvalues --  -10.17505 -10.17017  -1.13619  -1.07652  -0.80706
 Alpha  occ. eigenvalues --   -0.76585  -0.70480  -0.61261  -0.57445  -0.55324
 Alpha  occ. eigenvalues --   -0.49737  -0.48599  -0.46871  -0.44871  -0.43007
 Alpha  occ. eigenvalues --   -0.40320  -0.38887  -0.36169  -0.34532  -0.28624
 Alpha  occ. eigenvalues --   -0.21368
 Alpha virt. eigenvalues --    0.00045   0.01029   0.01800   0.02496   0.03185
 Alpha virt. eigenvalues --    0.04257   0.04387   0.06205   0.06612   0.07188
 Alpha virt. eigenvalues --    0.07245   0.09033   0.09593   0.10779   0.11915

 Mulliken charges:
               1
     1  C   -0.209444
     2  C    0.259618
     3  C   -0.288851
     4  C   -0.010050
     5  O   -0.105763
     6  H    0.122333
     7  H    0.129548
     8  H    0.133831
     9  O   -0.216254
    10  C   -0.269804
    11  H    0.160099
    12  H    0.147379
    13  H    0.147360
 Sum of Mulliken charges =   0.00000

 Dipole moment (field-independent basis, Debye):
    X=             -0.9800    Y=              1.9221    Z=              0.0001  Tot=              2.1576
 Quadrupole moment (field-independent basis, Debye-Ang):
   XX=            -32.4024   YY=            -41.7016   ZZ=            -43.8378
   XY=             -2.4995   XZ=              0.0003   YZ=             -0.0011

 ESP charges:
               1
     1  C    0.526814
     2  C   -0.335094
     3  C   -0.118635
     4  C   -0.117500
     5  O   -0.222788
     6  H    0.151525
     7  H    0.120947
     8  H    0.157781
     9  O   -0.420271
    10  C    0.236406
    11  H    0.048548
    12  H   -0.013876
    13  H   -0.013858
 Sum of ESP charges =   0.00000

 Summary of Natural Population Analysis:

                                       Natural Population
                Natural  -----------------------------------------------
    Atom  No    Charge         Core      Valence    Rydberg      Total
 -----------------------------------------------------------------------
      C    1    0.62740      1.99878     3.33930    0.03451     5.37260
      C    2   -0.41204      1.99904     4.39704    0.01596     6.41204
      C    3   -0.28640      1.99919     4.27034    0.01687     6.28640
      C    4    0.08421      1.99905     3.88940    0.02735     5.91579
      O    5   -0.46971      1.99971     6.45141    0.01860     8.46971
      H    6    0.22370      0.00000     0.77476    0.00154     0.77630
      H    7    0.22125      0.00000     0.77723    0.00153     0.77875
      H    8    0.20011      0.00000     0.79841    0.00148     0.79989
      O    9   -0.52692      1.99969     6.50821    0.01901     8.52692
      C   10   -0.20402      1.99926     4.19000    0.01476     6.20402
      H   11    0.19363      0.00000     0.80538    0.00099     0.80637
      H   12    0.17440      0.00000     0.82347    0.00213     0.82560
      H   13    0.17439      0.00000     0.82348    0.00213     0.82561
 =======================================================================
   * Total *    0.00000     13.99472    37.84843    0.15685    52.00000

 Normal termination of Gaussian 09 at Fri Jul 23 17:36:06 2021.
