 Gaussian 09, Revision D.01,
 Gaussian 09:  ES64L-G09RevD.01 24-Apr-2013

 ----------------------------------------------------------------------
 # opt freq=noraman b3lyp/6-311+g(d,p) geom=connectivity pop=(hirshfeld
 ,chelpg,npa,mbs)
 ----------------------------------------------------------------------

 -------------------
 Title Card Required
 -------------------
 Symbolic Z-matrix:
 Charge =  0 Multiplicity = 1

 SCF Done:  E(RB3LYP) =  -461.428670151     A.U. after   15 cycles
 SCF Done:  E(RB3LYP) =  -461.438868431     A.U. after   14 cycles
 SCF Done:  E(RB3LYP) =  -461.439601885     A.U. after   12 cycles
 SCF Done:  E(RB3LYP) =  -461.439682513     A.U. after   11 cycles
 SCF Done:  E(RB3LYP) =  -461.439534289     A.U. after   13 cycles
 SCF Done:  E(RB3LYP) =  -461.439687110     A.U. after   12 cycles
 SCF Done:  E(RB3LYP) =  -461.439687494     A.U. after    9 cycles
 SCF Done:  E(RB3LYP) =  -461.439687517     A.U. after    9 cycles
 SCF Done:  E(RB3LYP) =  -461.439687559     A.U. after    9 cycles
 Optimization completed.
    -- Stationary point found.
 Normal termination of Gaussian 09 at Thu Feb  2 15:28:53 2023.

 ----------------------------------------------------------------------
 #N Geom=AllCheck Guess=TCheck SCRF=Check GenChk RB3LYP/6-311+G(d,p) Fr
 eq
 ----------------------------------------------------------------------

 Structure from the checkpoint file:  "regiodevergent1a_Ishiyana.chk"
 -------------------
 Title Card Required
 -------------------
 Charge =  0 Multiplicity = 1

                         Standard orientation:
 ---------------------------------------------------------------------
 Center     Atomic      Atomic             Coordinates (Angstroms)
 Number     Number       Type             X           Y           Z
 ---------------------------------------------------------------------
      1          6           0        2.274257   -0.010798    0.000057
      2          6           0        1.999485    1.330351   -0.000080
      3          6           0        0.581488    1.449114   -0.000165
      4          6           0        0.077776    0.173427   -0.000086
      5          8           0        1.118921   -0.718513   -0.000003
      6          1           0        2.725144    2.128289   -0.000100
      7          1           0        0.006378    2.361512   -0.000257
      8          6           0        3.539094   -0.790297    0.000190
      9          1           0        3.602202   -1.433514    0.882802
     10          1           0        3.602321   -1.433624   -0.882335
     11          1           0        4.395044   -0.114661    0.000205
     12          6           0       -1.286774   -0.370887   -0.000091
     13          8           0       -1.494999   -1.570158   -0.000271
     14          6           0       -2.421009    0.651249    0.000142
     15          1           0       -2.294352    1.300953    0.874294
     16          1           0       -2.294501    1.301187   -0.873858
     17          6           0       -3.806938    0.010848    0.000179
     18          1           0       -4.581212    0.782037    0.000357
     19          1           0       -3.948414   -0.620305   -0.879023
     20          1           0       -3.948256   -0.620550    0.879231
 ---------------------------------------------------------------------

 SCF Done:  E(RB3LYP) =  -461.439687559     A.U. after    1 cycles

 The electronic state is 1-A.
 Alpha  occ. eigenvalues --  -19.19923 -19.10843 -10.26323 -10.25029 -10.23438
 Alpha  occ. eigenvalues --  -10.19563 -10.19036 -10.18524 -10.18299 -10.16082
 Alpha  occ. eigenvalues --   -1.12929  -1.04190  -0.82320  -0.80731  -0.77962
 Alpha  occ. eigenvalues --   -0.72171  -0.65601  -0.62555  -0.58138  -0.56284
 Alpha  occ. eigenvalues --   -0.50371  -0.48588  -0.46868  -0.46370  -0.45031
 Alpha  occ. eigenvalues --   -0.42951  -0.42168  -0.41980  -0.40681  -0.38357
 Alpha  occ. eigenvalues --   -0.38025  -0.37991  -0.36758  -0.34918  -0.30098
 Alpha  occ. eigenvalues --   -0.25774  -0.24305
 Alpha virt. eigenvalues --   -0.06156  -0.00500   0.00607   0.01627   0.01891
 Alpha virt. eigenvalues --    0.03171   0.03847   0.03940   0.04991   0.05614
 Alpha virt. eigenvalues --    0.06113   0.06575   0.06802   0.07136   0.07963

 Mulliken charges:
               1
     1  C    0.130321
     2  C   -0.404422
     3  C   -0.384936
     4  C    0.097979
     5  O   -0.025186
     6  H    0.127468
     7  H    0.136979
     8  C   -0.268134
     9  H    0.164095
    10  H    0.164097
    11  H    0.154149
    12  C    0.316728
    13  O   -0.270761
    14  C   -0.069389
    15  H    0.164860
    16  H    0.164843
    17  C   -0.639127
    18  H    0.133559
    19  H    0.153439
    20  H    0.153438
 Sum of Mulliken charges =   0.00000

 Dipole moment (field-independent basis, Debye):
    X=              2.0888    Y=              3.4643    Z=              0.0005  Tot=              4.0453
 Quadrupole moment (field-independent basis, Debye-Ang):
   XX=            -50.3427   YY=            -62.4548   ZZ=            -60.6866
   XY=             -5.1203   XZ=             -0.0003   YZ=             -0.0014

  Exact polarizability: 141.574   4.068 101.795   0.001   0.000  65.804
 Approx polarizability: 177.755  15.879 175.065   0.004   0.000  99.400

 ESP charges:
               1
     1  C    0.357538
     2  C   -0.267421
     3  C   -0.149525
     4  C   -0.003326
     5  O   -0.199594
     6  H    0.141516
     7  H    0.142027
     8  C   -0.395040
     9  H    0.128945
    10  H    0.128921
    11  H    0.114759
    12  C    0.463302
    13  O   -0.502726
    14  C    0.150519
    15  H   -0.041585
    16  H   -0.041548
    17  C   -0.117611
    18  H    0.023934
    19  H    0.033454
    20  H    0.033463
 Sum of ESP charges =   0.00000

 Summary of Natural Population Analysis:

                                       Natural Population
                Natural  -----------------------------------------------
    Atom  No    Charge         Core      Valence    Rydberg      Total
 -----------------------------------------------------------------------
      C    1    0.34615      1.99901     3.62973    0.02511     5.65385
      C    2   -0.31360      1.99902     4.29870    0.01588     6.31360
      C    3   -0.23451      1.99908     4.22092    0.01451     6.23451
      C    4    0.18503      1.99885     3.78935    0.02677     5.81497
      O    5   -0.44532      1.99969     6.42843    0.01720     8.44532
      H    6    0.22470      0.00000     0.77388    0.00142     0.77530
      H    7    0.22481      0.00000     0.77357    0.00162     0.77519
      C    8   -0.61939      1.99928     4.61104    0.00906     6.61939
      H    9    0.22565      0.00000     0.77267    0.00168     0.77435
      H   10    0.22565      0.00000     0.77267    0.00168     0.77435
      H   11    0.21892      0.00000     0.78001    0.00107     0.78108
      C   12    0.50745      1.99924     3.45388    0.03943     5.49255
      O   13   -0.54757      1.99976     6.53470    0.01311     8.54757
      C   14   -0.46775      1.99925     4.45741    0.01109     6.46775
      H   15    0.21442      0.00000     0.78349    0.00210     0.78558
      H   16    0.21441      0.00000     0.78349    0.00210     0.78559
      C   17   -0.57566      1.99938     4.56537    0.01091     6.57566
      H   18    0.19781      0.00000     0.80094    0.00125     0.80219
      H   19    0.20940      0.00000     0.78901    0.00159     0.79060
      H   20    0.20940      0.00000     0.78901    0.00159     0.79060
 =======================================================================
   * Total *    0.00000     19.99257    53.80828    0.19915    74.00000

                      1                      2                      3
                      A                      A                      A
 Frequencies --     27.2834                63.1849               111.9974
 Red. masses --      1.9241                 3.4986                 1.1241
 Frc consts  --      0.0008                 0.0082                 0.0083
 IR Inten    --      0.0083                 3.1113                 0.0030

                      4                      5                      6
                      A                      A                      A
 Frequencies --    129.2363               144.0300               212.9263
 Red. masses --      3.6841                 4.1528                 1.1617
 Frc consts  --      0.0363                 0.0508                 0.0310
 IR Inten    --      2.0873                 0.7838                 1.1575

                      7                      8                      9
                      A                      A                      A
 Frequencies --    261.8993               267.1920               317.9074
 Red. masses --      3.7977                 3.1056                 3.3494
 Frc consts  --      0.1535                 0.1306                 0.1994
 IR Inten    --      4.7987                 2.2645                 6.0920

                     10                     11                     12
                      A                      A                      A
 Frequencies --    384.7893               510.7924               537.2305
 Red. masses --      4.4869                 5.1652                 2.6633
 Frc consts  --      0.3914                 0.7940                 0.4529
 IR Inten    --      1.2195                 4.5490                 0.5251

                     13                     14                     15
                      A                      A                      A
 Frequencies --    633.0199               661.9828               673.8165
 Red. masses --      3.2540                 4.3073                 3.8707
 Frc consts  --      0.7682                 1.1121                 1.0354
 IR Inten    --      0.0261                 3.5302                 0.1137

                     16                     17                     18
                      A                      A                      A
 Frequencies --    714.3249               802.4029               818.4093
 Red. masses --      3.6009                 1.2260                 1.4508
 Frc consts  --      1.0826                 0.4651                 0.5725
 IR Inten    --      1.7574                55.0539                 0.3213

                     19                     20                     21
                      A                      A                      A
 Frequencies --    881.0057               915.5373               969.5581
 Red. masses --      1.3628                 5.3517                 2.4964
 Frc consts  --      0.6232                 2.6430                 1.3826
 IR Inten    --      0.2513                42.5733                11.8266

                     22                     23                     24
                      A                      A                      A
 Frequencies --    994.6979              1007.5008              1044.6441
 Red. masses --      3.4332                 1.7848                 1.5279
 Frc consts  --      2.0014                 1.0674                 0.9824
 IR Inten    --      1.0758                 1.1665                22.6506

                     25                     26                     27
                      A                      A                      A
 Frequencies --   1053.2765              1061.3466              1089.3099
 Red. masses --      1.8662                 1.5022                 1.6549
 Frc consts  --      1.2198                 0.9970                 1.1570
 IR Inten    --     93.6762                 2.2024                 0.1114

                     28                     29                     30
                      A                      A                      A
 Frequencies --   1113.7177              1227.2882              1236.9068
 Red. masses --      2.6108                 1.6801                 3.9737
 Frc consts  --      1.9080                 1.4910                 3.5819
 IR Inten    --     36.4979                38.0640                13.9949

                     31                     32                     33
                      A                      A                      A
 Frequencies --   1280.9135              1283.7910              1369.8891
 Red. masses --      1.1804                 3.8886                 2.0578
 Frc consts  --      1.1411                 3.7760                 2.2753
 IR Inten    --      0.1476                60.2209                19.5193

                     34                     35                     36
                      A                      A                      A
 Frequencies --   1399.8685              1417.4581              1418.2546
 Red. masses --      2.9514                 1.2747                 1.2884
 Frc consts  --      3.4076                 1.5089                 1.5269
 IR Inten    --     33.7629                 2.6817                 5.4717

                     37                     38                     39
                      A                      A                      A
 Frequencies --   1463.3373              1473.3623              1488.8140
 Red. masses --      1.0875                 1.0413                 1.1544
 Frc consts  --      1.3721                 1.3318                 1.5077
 IR Inten    --      9.3510                 8.6389                11.1058

                     40                     41                     42
                      A                      A                      A
 Frequencies --   1493.2258              1501.9184              1543.9387
 Red. masses --      1.0368                 1.0510                 6.5184
 Frc consts  --      1.3620                 1.3968                 9.1548
 IR Inten    --      7.7894                11.4456               173.2472

                     43                     44                     45
                      A                      A                      A
 Frequencies --   1619.0074              1735.8969              3018.1692
 Red. masses --      5.5918                11.2963                 1.0600
 Frc consts  --      8.6357                20.0555                 5.6889
 IR Inten    --      8.6636               265.4491                23.6148

                     46                     47                     48
                      A                      A                      A
 Frequencies --   3031.6739              3041.6440              3045.1440
 Red. masses --      1.0373                 1.0358                 1.1003
 Frc consts  --      5.6171                 5.6462                 6.0112
 IR Inten    --     19.3997                29.2825                 7.7969

                     49                     50                     51
                      A                      A                      A
 Frequencies --   3081.7978              3105.2552              3114.3342
 Red. masses --      1.1007                 1.1013                 1.1024
 Frc consts  --      6.1594                 6.2570                 6.2998
 IR Inten    --      8.5592                22.0243                23.2676

                     52                     53                     54
                      A                      A                      A
 Frequencies --   3123.4390              3241.5927              3254.5701
 Red. masses --      1.0999                 1.0933                 1.1017
 Frc consts  --      6.3221                 6.7688                 6.8754
 IR Inten    --      9.3132                 4.8132                 0.1261

 - Thermochemistry -
 -------------------
 Temperature   298.150 Kelvin.  Pressure   1.00000 Atm.
 Atom     1 has atomic number  6 and mass  12.00000

 Molecular mass:   138.06808 amu.
 Principal axes and moments of inertia in atomic units:
                           1         2         3
     Eigenvalues --   472.392112519.163942958.21768
           X            0.99986  -0.01685   0.00000
           Y            0.01685   0.99986  -0.00001
           Z            0.00000   0.00001   1.00000
 This molecule is an asymmetric top.
 Rotational symmetry number  1.
 Warning -- assumption of classical behavior for rotation
           may cause significant error
 Rotational temperatures (Kelvin)      0.18335     0.03438     0.02928
 Rotational constants (GHZ):           3.82043     0.71640     0.61008
 Zero-point vibrational energy     427153.6 (Joules/Mol)
                                  102.09217 (Kcal/Mol)
 Warning -- explicit consideration of  12 degrees of freedom as
           vibrations may cause significant error
 Vibrational temperatures:     39.25    90.91   161.14   185.94   207.23
          (Kelvin)            306.35   376.81   384.43   457.40   553.63
                              734.92   772.95   910.77   952.44   969.47
                             1027.75  1154.48  1177.51  1267.57  1317.25
                             1394.98  1431.15  1449.57  1503.01  1515.43
                             1527.04  1567.27  1602.39  1765.79  1779.63
                             1842.95  1847.09  1970.96  2014.10  2039.40
                             2040.55  2105.41  2119.84  2142.07  2148.42
                             2160.92  2221.38  2329.39  2497.57  4342.47
                             4361.90  4376.24  4381.28  4434.01  4467.76
                             4480.83  4493.93  4663.92  4682.59

 Zero-point correction=                           0.162694 (Hartree/Particle)
 Thermal correction to Energy=                    0.173009
 Thermal correction to Enthalpy=                  0.173953
 Thermal correction to Gibbs Free Energy=         0.125750
 Sum of electronic and zero-point Energies=           -461.276993
 Sum of electronic and thermal Energies=              -461.266679
 Sum of electronic and thermal Enthalpies=            -461.265734
 Sum of electronic and thermal Free Energies=         -461.313938

                     E (Thermal)             CV                S
                      KCal/Mol        Cal/Mol-Kelvin    Cal/Mol-Kelvin
 Total                  108.565             36.684            101.452
 Electronic               0.000              0.000              0.000
 Translational            0.889              2.981             40.680
 Rotational               0.889              2.981             29.644
 Vibrational            106.787             30.722             31.129
 Vibration     1          0.593              1.984              6.018
 Vibration     2          0.597              1.972              4.355
 Vibration     3          0.607              1.940              3.234
 Vibration     4          0.612              1.924              2.957
 Vibration     5          0.616              1.909              2.750
 Vibration     6          0.644              1.821              2.018
 Vibration     7          0.669              1.743              1.649
 Vibration     8          0.672              1.733              1.614
 Vibration     9          0.704              1.639              1.321
 Vibration    10          0.754              1.503              1.020
 Vibration    11          0.866              1.226              0.632
 Vibration    12          0.892              1.168              0.571

 Optimization completed.
    -- Stationary point found.
 Normal termination of Gaussian 09 at Thu Feb  2 15:30:50 2023.
