 Gaussian 09, Revision D.01,
 Gaussian 09:  ES64L-G09RevD.01 24-Apr-2013

 ----------------------------------------------------------------------
 # opt freq b3lyp/6-311+g(d,p) geom=connectivity pop=(hirshfeld,chelpg,
 mbs,npa)
 ----------------------------------------------------------------------

 -------------------
 Title Card Required
 -------------------
 Symbolic Z-matrix:
 Charge =  0 Multiplicity = 1

 SCF Done:  E(RB3LYP) =  -439.143763557     A.U. after   15 cycles
 SCF Done:  E(RB3LYP) =  -439.162108324     A.U. after   14 cycles
 SCF Done:  E(RB3LYP) =  -439.164052385     A.U. after   13 cycles
 SCF Done:  E(RB3LYP) =  -439.164068184     A.U. after   12 cycles
 SCF Done:  E(RB3LYP) =  -439.164397242     A.U. after   11 cycles
 SCF Done:  E(RB3LYP) =  -439.164422129     A.U. after   10 cycles
 SCF Done:  E(RB3LYP) =  -439.164433924     A.U. after   10 cycles
 SCF Done:  E(RB3LYP) =  -439.164435313     A.U. after    9 cycles
 Optimization completed.
    -- Stationary point found.
 Normal termination of Gaussian 09 at Mon Nov  1 16:51:57 2021.

 ----------------------------------------------------------------------
 #N Geom=AllCheck Guess=TCheck SCRF=Check GenChk RB3LYP/6-311+G(d,p) Fr
 eq
 ----------------------------------------------------------------------

 Structure from the checkpoint file:  "Chart1_1.chk"
 -------------------
 Title Card Required
 -------------------
 Charge =  0 Multiplicity = 1

                         Standard orientation:
 ---------------------------------------------------------------------
 Center     Atomic      Atomic             Coordinates (Angstroms)
 Number     Number       Type             X           Y           Z
 ---------------------------------------------------------------------
      1          6           0        1.399012    1.429850    0.000219
      2          6           0        0.189664    0.736017    0.000448
      3          6           0        0.187262   -0.662113    0.000257
      4          6           0        1.335225   -1.434993   -0.000101
      5          6           0        2.539899   -0.729760   -0.000177
      6          6           0        2.569793    0.674636   -0.000129
      7          1           0        1.418480    2.512673    0.000042
      8          1           0        1.300680   -2.516971    0.000001
      9          1           0        3.473631   -1.279757   -0.000334
     10          1           0        3.528664    1.179763   -0.000368
     11          6           0       -1.845618    0.105779   -0.000092
     12          8           0       -1.124189   -1.070243    0.000169
     13          7           0       -1.134722    1.182756   -0.000331
     14          6           0       -3.323732   -0.024856   -0.000129
     15          1           0       -3.662087   -0.574432   -0.882724
     16          1           0       -3.662102   -0.573923    0.882812
     17          1           0       -3.769738    0.967939   -0.000233
 ---------------------------------------------------------------------

 SCF Done:  E(RB3LYP) =  -439.164435313     A.U. after    1 cycles

 The electronic state is 1-A.
 Alpha  occ. eigenvalues --  -19.20145 -14.31789 -10.27907 -10.23910 -10.20997
 Alpha  occ. eigenvalues --  -10.19247 -10.19092 -10.18614 -10.18538 -10.18239
 Alpha  occ. eigenvalues --   -1.13674  -0.93671  -0.86663  -0.78967  -0.76194
 Alpha  occ. eigenvalues --   -0.72441  -0.63546  -0.62224  -0.59882  -0.52874
 Alpha  occ. eigenvalues --   -0.51872  -0.49391  -0.48164  -0.45585  -0.42852
 Alpha  occ. eigenvalues --   -0.42837  -0.42270  -0.41483  -0.38064  -0.36557
 Alpha  occ. eigenvalues --   -0.36468  -0.33677  -0.29972  -0.25598  -0.24507
 Alpha virt. eigenvalues --   -0.03758  -0.00940   0.00260   0.00756   0.02162
 Alpha virt. eigenvalues --    0.02470   0.03410   0.04571   0.04808   0.04859
 Alpha virt. eigenvalues --    0.06262   0.06289   0.06869   0.08811   0.09251

 Mulliken charges:
               1
     1  C   -0.651320
     2  C    0.623934
     3  C    0.483347
     4  C   -0.737397
     5  C   -0.180017
     6  C   -0.189979
     7  H    0.129490
     8  H    0.128760
     9  H    0.130798
    10  H    0.129245
    11  C    0.127898
    12  O   -0.087810
    13  N   -0.088125
    14  C   -0.322469
    15  H    0.164399
    16  H    0.164412
    17  H    0.174832
 Sum of Mulliken charges =   0.00000

 Dipole moment (field-independent basis, Debye):
    X=             -0.2905    Y=             -1.1780    Z=              0.0002  Tot=              1.2133
 Quadrupole moment (field-independent basis, Debye-Ang):
   XX=            -47.2085   YY=            -58.4272   ZZ=            -60.7258
   XY=              1.6239   XZ=             -0.0021   YZ=              0.0010

  Exact polarizability: 144.258   0.754 100.488  -0.004   0.002  58.413
 Approx polarizability: 210.275   5.190 176.510  -0.012   0.005  88.862

 ESP charges:
               1
     1  C   -0.253098
     2  C    0.391361
     3  C    0.203273
     4  C   -0.187940
     5  C   -0.149003
     6  C   -0.090408
     7  H    0.152911
     8  H    0.144760
     9  H    0.112437
    10  H    0.097969
    11  C    0.669183
    12  O   -0.387733
    13  N   -0.692281
    14  C   -0.289208
    15  H    0.090596
    16  H    0.090467
    17  H    0.096714
 Sum of ESP charges =   0.00000

 Summary of Natural Population Analysis:

                                       Natural Population
                Natural  -----------------------------------------------
    Atom  No    Charge         Core      Valence    Rydberg      Total
 -----------------------------------------------------------------------
      C    1   -0.19582      1.99907     4.17936    0.01739     6.19582
      C    2    0.08025      1.99887     3.89539    0.02549     5.91975
      C    3    0.27390      1.99867     3.70405    0.02338     5.72610
      C    4   -0.24201      1.99906     4.22630    0.01666     6.24201
      C    5   -0.20073      1.99920     4.18389    0.01764     6.20073
      C    6   -0.21366      1.99919     4.19678    0.01769     6.21366
      H    7    0.21970      0.00000     0.77832    0.00197     0.78030
      H    8    0.22222      0.00000     0.77604    0.00175     0.77778
      H    9    0.20866      0.00000     0.78994    0.00140     0.79134
      H   10    0.20865      0.00000     0.78996    0.00139     0.79135
      C   11    0.55984      1.99924     3.40476    0.03616     5.44016
      O   12   -0.49039      1.99971     6.47453    0.01616     8.49039
      N   13   -0.48927      1.99932     5.47145    0.01850     7.48927
      C   14   -0.63046      1.99926     4.62240    0.00879     6.63046
      H   15    0.22698      0.00000     0.77155    0.00148     0.77302
      H   16    0.22698      0.00000     0.77154    0.00148     0.77302
      H   17    0.23518      0.00000     0.76345    0.00137     0.76482
 =======================================================================
   * Total *    0.00000     19.99159    49.79972    0.20868    70.00000

                      1                      2                      3
                      A                      A                      A
 Frequencies --     99.8588               135.2732               258.9869
 Red. masses --      1.0997                 3.0054                 6.1549
 Frc consts  --      0.0065                 0.0324                 0.2432
 IR Inten    --      0.5225                 3.4403                 0.4920

                      4                      5                      6
                      A                      A                      A
 Frequencies --    264.3045               316.6220               433.5559
 Red. masses --      2.9452                 4.2391                 2.9535
 Frc consts  --      0.1212                 0.2504                 0.3271
 IR Inten    --      4.2945                 0.2511                 4.1164

                      7                      8                      9
                      A                      A                      A
 Frequencies --    484.1546               503.1650               585.4806
 Red. masses --      4.3114                 5.6341                 3.8575
 Frc consts  --      0.5954                 0.8404                 0.7791
 IR Inten    --      0.6553                 0.1964                 0.1694

                     10                     11                     12
                      A                      A                      A
 Frequencies --    634.9256               666.6468               685.0723
 Red. masses --      7.0573                 4.2207                 5.2021
 Frc consts  --      1.6762                 1.1052                 1.4385
 IR Inten    --      0.7836                 0.1586                 0.0456

                     13                     14                     15
                      A                      A                      A
 Frequencies --    756.7326               766.7241               848.3060
 Red. masses --      1.5121                 3.1709                 5.7339
 Frc consts  --      0.5102                 1.0983                 2.4311
 IR Inten    --     67.1397                20.1452                24.5816

                     16                     17                     18
                      A                      A                      A
 Frequencies --    865.5041               896.3701               934.6314
 Red. masses --      1.4217                 5.0709                 6.3205
 Frc consts  --      0.6275                 2.4005                 3.2530
 IR Inten    --      0.1026                 7.4741                28.2548

                     19                     20                     21
                      A                      A                      A
 Frequencies --    948.1504               984.9255              1021.3781
 Red. masses --      1.3724                 1.2690                 1.9853
 Frc consts  --      0.7269                 0.7253                 1.2203
 IR Inten    --      3.0847                 0.0099                11.0817

                     22                     23                     24
                      A                      A                      A
 Frequencies --   1039.5376              1064.1601              1123.1144
 Red. masses --      1.9681                 1.5542                 1.7534
 Frc consts  --      1.2531                 1.0370                 1.3031
 IR Inten    --      0.1831                 2.5280                 5.4179

                     25                     26                     27
                      A                      A                      A
 Frequencies --   1168.7495              1184.5109              1260.7871
 Red. masses --      1.2689                 2.5796                 4.1643
 Frc consts  --      1.0212                 2.1325                 3.9001
 IR Inten    --     12.6993                39.3631                63.4068

                     28                     29                     30
                      A                      A                      A
 Frequencies --   1283.8755              1309.2555              1377.6774
 Red. masses --      4.6308                 1.5744                 4.3542
 Frc consts  --      4.4973                 1.5901                 4.8692
 IR Inten    --     34.0065                 0.8667                 4.6473

                     31                     32                     33
                      A                      A                      A
 Frequencies --   1415.2908              1475.0444              1475.4314
 Red. masses --      1.3939                 1.0438                 1.4480
 Frc consts  --      1.6450                 1.3381                 1.8573
 IR Inten    --      6.6577                 9.9309                42.9669

                     34                     35                     36
                      A                      A                      A
 Frequencies --   1481.4048              1505.1467              1616.1117
 Red. masses --      1.5966                 2.5987                 7.8081
 Frc consts  --      2.0644                 3.4687                12.0154
 IR Inten    --     14.4097                 2.3425                47.8255

                     37                     38                     39
                      A                      A                      A
 Frequencies --   1647.9921              1661.3643              3040.6004
 Red. masses --      7.5904                 7.7670                 1.0381
 Frc consts  --     12.1458                12.6308                 5.6548
 IR Inten    --      7.8961                43.6618                13.0846

                     40                     41                     42
                      A                      A                      A
 Frequencies --   3092.0714              3149.6984              3172.1399
 Red. masses --      1.1003                 1.0999                 1.0865
 Frc consts  --      6.1984                 6.4289                 6.4412
 IR Inten    --      7.0859                 2.9284                 2.2032

                     43                     44                     45
                      A                      A                      A
 Frequencies --   3185.8879              3199.0859              3203.7113
 Red. masses --      1.0905                 1.0943                 1.0960
 Frc consts  --      6.5216                 6.5987                 6.6278
 IR Inten    --      9.8286                 9.4590                 4.7961

 - Thermochemistry -
 -------------------
 Temperature   298.150 Kelvin.  Pressure   1.00000 Atm.
 Atom     1 has atomic number  6 and mass  12.00000

 Molecular mass:   133.05276 amu.
 Principal axes and moments of inertia in atomic units:
                           1         2         3
     Eigenvalues --   463.839441733.511912186.13276
           X            1.00000   0.00161   0.00000
           Y           -0.00161   1.00000   0.00000
           Z            0.00000   0.00000   1.00000
 This molecule is an asymmetric top.
 Rotational symmetry number  1.
 Warning -- assumption of classical behavior for rotation
           may cause significant error
 Rotational temperatures (Kelvin)      0.18673     0.04996     0.03962
 Rotational constants (GHZ):           3.89087     1.04109     0.82554
 Zero-point vibrational energy     348253.4 (Joules/Mol)
                                   83.23455 (Kcal/Mol)
 Warning -- explicit consideration of   9 degrees of freedom as
           vibrations may cause significant error
 Vibrational temperatures:    143.67   194.63   372.62   380.27   455.55
          (Kelvin)            623.79   696.59   723.94   842.37   913.52
                              959.15   985.66  1088.77  1103.14  1220.52
                             1245.27  1289.68  1344.72  1364.18  1417.09
                             1469.53  1495.66  1531.09  1615.91  1681.57
                             1704.24  1813.99  1847.21  1883.72  1982.17
                             2036.29  2122.26  2122.81  2131.41  2165.57
                             2325.22  2371.09  2390.33  4374.74  4448.80
                             4531.71  4564.00  4583.78  4602.77  4609.42

 Zero-point correction=                           0.132643 (Hartree/Particle)
 Thermal correction to Energy=                    0.140239
 Thermal correction to Enthalpy=                  0.141183
 Thermal correction to Gibbs Free Energy=         0.100280
 Sum of electronic and zero-point Energies=           -439.031793
 Sum of electronic and thermal Energies=              -439.024196
 Sum of electronic and thermal Enthalpies=            -439.023252
 Sum of electronic and thermal Free Energies=         -439.064155

                     E (Thermal)             CV                S
                      KCal/Mol        Cal/Mol-Kelvin    Cal/Mol-Kelvin
 Total                   88.001             29.843             86.087
 Electronic               0.000              0.000              0.000
 Translational            0.889              2.981             40.569
 Rotational               0.889              2.981             28.954
 Vibrational             86.224             23.881             16.564
 Vibration     1          0.604              1.949              3.457
 Vibration     2          0.613              1.918              2.870
 Vibration     3          0.668              1.748              1.669
 Vibration     4          0.671              1.738              1.633
 Vibration     5          0.704              1.642              1.327
 Vibration     6          0.794              1.397              0.847
 Vibration     7          0.840              1.285              0.699
 Vibration     8          0.858              1.243              0.650
 Vibration     9          0.942              1.063              0.475

 Optimization completed.
    -- Stationary point found.
 Normal termination of Gaussian 09 at Mon Nov  1 16:53:34 2021.
