 Gaussian 09, Revision D.01,
 Gaussian 09:  ES64L-G09RevD.01 24-Apr-2013

 ----------------------------------------------------------------------
 # opt freq=noraman b3lyp/6-311+g(d,p) pop=(npa,hirshfeld,chelpg,mbs) g
 eom=connectivity
 ----------------------------------------------------------------------

 -------------------
 Title Card Required
 -------------------
 Symbolic Z-matrix:
 Charge =  0 Multiplicity = 1

 SCF Done:  E(RB3LYP) =  -500.750152216     A.U. after   15 cycles
 SCF Done:  E(RB3LYP) =  -500.761800458     A.U. after   14 cycles
 SCF Done:  E(RB3LYP) =  -500.763309745     A.U. after   12 cycles
 SCF Done:  E(RB3LYP) =  -500.763497409     A.U. after   12 cycles
 SCF Done:  E(RB3LYP) =  -500.754900008     A.U. after   14 cycles
 SCF Done:  E(RB3LYP) =  -500.763616126     A.U. after   11 cycles
 SCF Done:  E(RB3LYP) =  -500.763705318     A.U. after   11 cycles
 SCF Done:  E(RB3LYP) =  -500.763741027     A.U. after   10 cycles
 SCF Done:  E(RB3LYP) =  -500.763744923     A.U. after   10 cycles
 SCF Done:  E(RB3LYP) =  -500.763745326     A.U. after   10 cycles
 SCF Done:  E(RB3LYP) =  -500.763745713     A.U. after    9 cycles
 SCF Done:  E(RB3LYP) =  -500.763746022     A.U. after    9 cycles
 SCF Done:  E(RB3LYP) =  -500.763746203     A.U. after    8 cycles
 SCF Done:  E(RB3LYP) =  -500.763746285     A.U. after    8 cycles
 SCF Done:  E(RB3LYP) =  -500.763746298     A.U. after    8 cycles
 Optimization completed.
    -- Stationary point found.
 Normal termination of Gaussian 09 at Thu Feb  2 15:55:40 2023.

 ----------------------------------------------------------------------
 #N Geom=AllCheck Guess=TCheck SCRF=Check GenChk RB3LYP/6-311+G(d,p) Fr
 eq
 ----------------------------------------------------------------------

 Structure from the checkpoint file:  "regiodevergent1m_Ishiyana.chk"
 -------------------
 Title Card Required
 -------------------
 Charge =  0 Multiplicity = 1

                         Standard orientation:
 ---------------------------------------------------------------------
 Center     Atomic      Atomic             Coordinates (Angstroms)
 Number     Number       Type             X           Y           Z
 ---------------------------------------------------------------------
      1          6           0        1.859267    0.420720   -0.221579
      2          6           0        1.432871    1.696834    0.034504
      3          6           0        0.015282    1.634114    0.138335
      4          6           0       -0.337929    0.323522   -0.059746
      5          8           0        0.794307   -0.416576   -0.279427
      6          1           0        2.060462    2.568470    0.133432
      7          1           0       -0.658470    2.453249    0.334205
      8          6           0        3.205776   -0.182451   -0.430164
      9          1           0        3.226833   -0.667159   -1.412949
     10          1           0        3.934729    0.631546   -0.463163
     11          6           0       -1.626925   -0.380698   -0.078539
     12          8           0       -1.694852   -1.581028   -0.269778
     13          6           0       -2.868774    0.477599    0.150553
     14          1           0       -2.742156    1.020598    1.094464
     15          1           0       -2.898213    1.245230   -0.632105
     16          6           0       -4.164128   -0.330466    0.161640
     17          1           0       -5.021129    0.328600    0.321015
     18          1           0       -4.305382   -0.859289   -0.782547
     19          1           0       -4.153082   -1.079971    0.955188
     20          6           0        3.596317   -1.204771    0.651612
     21          1           0        2.880398   -2.028245    0.685241
     22          1           0        4.584902   -1.620522    0.441693
     23          1           0        3.624921   -0.738094    1.639473
 ---------------------------------------------------------------------

 SCF Done:  E(RB3LYP) =  -500.763746298     A.U. after    1 cycles

 The electronic state is 1-A.
 Alpha  occ. eigenvalues --  -19.19850 -19.10825 -10.26299 -10.24651 -10.23392
 Alpha  occ. eigenvalues --  -10.19501 -10.19416 -10.18455 -10.18283 -10.17179
 Alpha  occ. eigenvalues --  -10.16074  -1.12835  -1.04165  -0.82257  -0.81657
 Alpha  occ. eigenvalues --   -0.78308  -0.74562  -0.67411  -0.63841  -0.62378
 Alpha  occ. eigenvalues --   -0.57718  -0.56246  -0.50401  -0.48442  -0.47178
 Alpha  occ. eigenvalues --   -0.45937  -0.45438  -0.44850  -0.43088  -0.41969
 Alpha  occ. eigenvalues --   -0.39943  -0.38809  -0.38241  -0.37735  -0.36996
 Alpha  occ. eigenvalues --   -0.36744  -0.36031  -0.34897  -0.30019  -0.25757
 Alpha  occ. eigenvalues --   -0.24234
 Alpha virt. eigenvalues --   -0.06155  -0.00531   0.00432   0.01458   0.02204
 Alpha virt. eigenvalues --    0.02603   0.03381   0.03718   0.04406   0.04918
 Alpha virt. eigenvalues --    0.06036   0.06249   0.06559   0.06656   0.07224

 Mulliken charges:
               1
     1  C    0.287734
     2  C   -0.359052
     3  C   -0.347851
     4  C    0.508207
     5  O   -0.017278
     6  H    0.126418
     7  H    0.136322
     8  C   -0.228433
     9  H    0.169411
    10  H    0.143119
    11  C   -0.190133
    12  O   -0.265818
    13  C   -0.018010
    14  H    0.159955
    15  H    0.166158
    16  C   -0.668142
    17  H    0.132940
    18  H    0.154312
    19  H    0.152156
    20  C   -0.484744
    21  H    0.161270
    22  H    0.141589
    23  H    0.139871
 Sum of Mulliken charges =   0.00000

 Dipole moment (field-independent basis, Debye):
    X=              1.6688    Y=              3.5311    Z=              0.5373  Tot=              3.9424
 Quadrupole moment (field-independent basis, Debye-Ang):
   XX=            -57.3914   YY=            -68.9096   ZZ=            -67.4519
   XY=             -4.9283   XZ=             -1.5816   YZ=             -0.3182

  Exact polarizability: 155.345   4.783 114.125  -1.503   3.289  78.046
 Approx polarizability: 191.623  15.732 192.919  -2.544  11.365 117.697

 ESP charges:
               1
     1  C    0.219349
     2  C   -0.207165
     3  C   -0.164193
     4  C    0.000243
     5  O   -0.163741
     6  H    0.126854
     7  H    0.140504
     8  C   -0.110386
     9  H    0.048396
    10  H    0.043519
    11  C    0.463081
    12  O   -0.504013
    13  C    0.146950
    14  H   -0.037330
    15  H   -0.038616
    16  C   -0.141922
    17  H    0.031368
    18  H    0.041156
    19  H    0.039386
    20  C    0.133011
    21  H   -0.019414
    22  H   -0.014411
    23  H   -0.032626
 Sum of ESP charges =   0.00000

 Summary of Natural Population Analysis:

                                       Natural Population
                Natural  -----------------------------------------------
    Atom  No    Charge         Core      Valence    Rydberg      Total
 -----------------------------------------------------------------------
      C    1    0.35279      1.99898     3.62050    0.02774     5.64721
      C    2   -0.31085      1.99902     4.29602    0.01581     6.31085
      C    3   -0.23467      1.99908     4.22094    0.01465     6.23467
      C    4    0.18394      1.99885     3.79044    0.02677     5.81606
      O    5   -0.44779      1.99969     6.42989    0.01821     8.44779
      H    6    0.22490      0.00000     0.77360    0.00150     0.77510
      H    7    0.22461      0.00000     0.77377    0.00161     0.77539
      C    8   -0.43001      1.99922     4.41703    0.01375     6.43001
      H    9    0.21927      0.00000     0.77853    0.00220     0.78073
      H   10    0.21197      0.00000     0.78640    0.00163     0.78803
      C   11    0.50772      1.99924     3.45364    0.03941     5.49228
      O   12   -0.54850      1.99976     6.53561    0.01312     8.54850
      C   13   -0.46764      1.99925     4.45730    0.01109     6.46764
      H   14    0.21354      0.00000     0.78434    0.00211     0.78646
      H   15    0.21527      0.00000     0.78264    0.00209     0.78473
      C   16   -0.57569      1.99938     4.56539    0.01092     6.57569
      H   17    0.19783      0.00000     0.80093    0.00124     0.80217
      H   18    0.21011      0.00000     0.78829    0.00160     0.78989
      H   19    0.20856      0.00000     0.78986    0.00158     0.79144
      C   20   -0.56749      1.99936     4.55957    0.00856     6.56749
      H   21    0.21124      0.00000     0.78732    0.00144     0.78876
      H   22    0.20162      0.00000     0.79707    0.00131     0.79838
      H   23    0.19927      0.00000     0.79915    0.00159     0.80073
 =======================================================================
   * Total *    0.00000     21.99183    59.78824    0.21994    82.00000

                      1                      2                      3
                      A                      A                      A
 Frequencies --     33.8275                44.2478                59.8198
 Red. masses --      1.8824                 3.2549                 2.8982
 Frc consts  --      0.0013                 0.0038                 0.0061
 IR Inten    --      0.0983                 2.6266                 1.5996

                      4                      5                      6
                      A                      A                      A
 Frequencies --    117.4987               130.6220               178.2255
 Red. masses --      3.5982                 4.0304                 3.1380
 Frc consts  --      0.0293                 0.0405                 0.0587
 IR Inten    --      1.1119                 1.0361                 0.1895

                      7                      8                      9
                      A                      A                      A
 Frequencies --    209.8314               219.0195               275.3158
 Red. masses --      1.2648                 1.2328                 2.8853
 Frc consts  --      0.0328                 0.0348                 0.1289
 IR Inten    --      0.6764                 0.2077                 5.5840

                     10                     11                     12
                      A                      A                      A
 Frequencies --    315.0121               377.5715               399.6559
 Red. masses --      2.9371                 3.9778                 3.7594
 Frc consts  --      0.1717                 0.3341                 0.3538
 IR Inten    --      5.4530                 1.2691                 2.3369

                     13                     14                     15
                      A                      A                      A
 Frequencies --    510.7737               538.4242               631.7274
 Red. masses --      5.0360                 2.6327                 3.7159
 Frc consts  --      0.7741                 0.4497                 0.8737
 IR Inten    --      4.6948                 0.4490                 1.3783

                     16                     17                     18
                      A                      A                      A
 Frequencies --    662.7842               704.8135               720.2134
 Red. masses --      3.3252                 3.6791                 3.4994
 Frc consts  --      0.8606                 1.0768                 1.0695
 IR Inten    --      0.3450                 3.5338                 0.8097

                     19                     20                     21
                      A                      A                      A
 Frequencies --    790.3026               805.0925               820.3338
 Red. masses --      1.2039                 1.2853                 1.4564
 Frc consts  --      0.4430                 0.4908                 0.5775
 IR Inten    --      3.8238                48.6077                 2.9904

                     22                     23                     24
                      A                      A                      A
 Frequencies --    883.1140               915.8053               949.9455
 Red. masses --      1.3767                 5.3995                 2.8848
 Frc consts  --      0.6326                 2.6682                 1.5338
 IR Inten    --      0.1854                44.3759                 3.3082

                     25                     26                     27
                      A                      A                      A
 Frequencies --    989.5127              1004.0037              1024.7151
 Red. masses --      3.5742                 2.6772                 1.7723
 Frc consts  --      2.0619                 1.5900                 1.0965
 IR Inten    --     19.0226                 1.4428                11.2440

                     28                     29                     30
                      A                      A                      A
 Frequencies --   1050.6344              1079.1958              1088.6170
 Red. masses --      1.4469                 1.9201                 1.6237
 Frc consts  --      0.9410                 1.3176                 1.1337
 IR Inten    --     76.6264                22.2035                 0.5982

                     31                     32                     33
                      A                      A                      A
 Frequencies --   1089.8746              1115.3145              1221.1799
 Red. masses --      1.6497                 2.5845                 1.4772
 Frc consts  --      1.1545                 1.8942                 1.2979
 IR Inten    --      0.4882                41.6503                28.4177

                     34                     35                     36
                      A                      A                      A
 Frequencies --   1228.9482              1277.1376              1281.2335
 Red. masses --      3.8278                 2.5186                 1.1805
 Frc consts  --      3.4061                 2.4204                 1.1417
 IR Inten    --     23.7880                60.6851                 0.1421

                     37                     38                     39
                      A                      A                      A
 Frequencies --   1296.2490              1352.0305              1371.2531
 Red. masses --      1.6312                 1.5239                 2.0295
 Frc consts  --      1.6148                 1.6413                 2.2484
 IR Inten    --      8.2360                18.8393                20.2449

                     40                     41                     42
                      A                      A                      A
 Frequencies --   1405.8528              1416.9786              1417.7777
 Red. masses --      1.6020                 1.4049                 1.6250
 Frc consts  --      1.8654                 1.6620                 1.9245
 IR Inten    --     20.8335                 1.2111                14.2035

                     43                     44                     45
                      A                      A                      A
 Frequencies --   1463.5066              1478.5983              1492.9547
 Red. masses --      1.0881                 1.0866                 1.0368
 Frc consts  --      1.3731                 1.3996                 1.3615
 IR Inten    --      9.4897                 5.8774                 7.8709

                     46                     47                     48
                      A                      A                      A
 Frequencies --   1497.9786              1502.0249              1505.7117
 Red. masses --      1.0431                 1.0510                 1.0989
 Frc consts  --      1.3790                 1.3970                 1.4678
 IR Inten    --      7.8774                11.2433                 3.9661

                     49                     50                     51
                      A                      A                      A
 Frequencies --   1542.3505              1613.8160              1735.1346
 Red. masses --      5.9057                 5.9804                11.2985
 Frc consts  --      8.2772                 9.1768                20.0418
 IR Inten    --    165.1379                 6.5689               257.7838

                     52                     53                     54
                      A                      A                      A
 Frequencies --   3018.1932              3025.6144              3034.1380
 Red. masses --      1.0602                 1.0650                 1.0350
 Frc consts  --      5.6902                 5.7443                 5.6136
 IR Inten    --     23.4314                17.9470                31.7046

                     55                     56                     57
                      A                      A                      A
 Frequencies --   3041.6844              3045.6590              3073.0936
 Red. masses --      1.0362                 1.0997                 1.0968
 Frc consts  --      5.6483                 6.0102                 6.1028
 IR Inten    --     29.8544                 7.8710                 7.8327

                     58                     59                     60
                      A                      A                      A
 Frequencies --   3098.9381              3105.2717              3112.5740
 Red. masses --      1.1027                 1.1014                 1.1025
 Frc consts  --      6.2394                 6.2572                 6.2929
 IR Inten    --     34.1722                22.2289                22.5409

                     61                     62                     63
                      A                      A                      A
 Frequencies --   3114.5660              3241.5095              3254.9488
 Red. masses --      1.1023                 1.0934                 1.1014
 Frc consts  --      6.3003                 6.7687                 6.8753
 IR Inten    --     22.9517                 4.8368                 0.1334

 - Thermochemistry -
 -------------------
 Temperature   298.150 Kelvin.  Pressure   1.00000 Atm.
 Atom     1 has atomic number  6 and mass  12.00000

 Molecular mass:   152.08373 amu.
 Principal axes and moments of inertia in atomic units:
                           1         2         3
     Eigenvalues --   649.589233257.406193762.69833
           X            0.99987  -0.01602   0.00041
           Y            0.01603   0.99982  -0.00987
           Z           -0.00025   0.00988   0.99995
 This molecule is an asymmetric top.
 Rotational symmetry number  1.
 Warning -- assumption of classical behavior for rotation
           may cause significant error
 Rotational temperatures (Kelvin)      0.13334     0.02659     0.02302
 Rotational constants (GHZ):           2.77828     0.55404     0.47964
 Zero-point vibrational energy     502448.0 (Joules/Mol)
                                  120.08796 (Kcal/Mol)
 Warning -- explicit consideration of  14 degrees of freedom as
           vibrations may cause significant error
 Vibrational temperatures:     48.67    63.66    86.07   169.05   187.94
          (Kelvin)            256.43   301.90   315.12   396.12   453.23
                              543.24   575.01   734.89   774.67   908.91
                              953.60  1014.07  1036.23  1137.07  1158.35
                             1180.28  1270.60  1317.64  1366.76  1423.69
                             1444.54  1474.33  1511.63  1552.72  1566.28
                             1568.08  1604.69  1757.00  1768.18  1837.51
                             1843.41  1865.01  1945.27  1972.92  2022.71
                             2038.71  2039.86  2105.66  2127.37  2148.03
                             2155.25  2161.08  2166.38  2219.10  2321.92
                             2496.47  4342.50  4353.18  4365.44  4376.30
                             4382.02  4421.49  4458.68  4467.79  4478.29
                             4481.16  4663.80  4683.14

 Zero-point correction=                           0.191372 (Hartree/Particle)
 Thermal correction to Energy=                    0.202953
 Thermal correction to Enthalpy=                  0.203897
 Thermal correction to Gibbs Free Energy=         0.152401
 Sum of electronic and zero-point Energies=           -500.572374
 Sum of electronic and thermal Energies=              -500.560793
 Sum of electronic and thermal Enthalpies=            -500.559849
 Sum of electronic and thermal Free Energies=         -500.611345

                     E (Thermal)             CV                S
                      KCal/Mol        Cal/Mol-Kelvin    Cal/Mol-Kelvin
 Total                  127.355             41.435            108.383
 Electronic               0.000              0.000              0.000
 Translational            0.889              2.981             40.968
 Rotational               0.889              2.981             30.455
 Vibrational            125.577             35.473             36.960
 Vibration     1          0.594              1.983              5.591
 Vibration     2          0.595              1.980              5.059
 Vibration     3          0.597              1.973              4.463
 Vibration     4          0.608              1.935              3.141
 Vibration     5          0.612              1.923              2.937
 Vibration     6          0.629              1.869              2.347
 Vibration     7          0.642              1.826              2.045
 Vibration     8          0.647              1.812              1.967
 Vibration     9          0.677              1.719              1.563
 Vibration    10          0.702              1.645              1.336
 Vibration    11          0.748              1.518              1.049
 Vibration    12          0.766              1.471              0.964
 Vibration    13          0.866              1.226              0.632
 Vibration    14          0.893              1.165              0.569

 Optimization completed.
    -- Stationary point found.
 Normal termination of Gaussian 09 at Thu Feb  2 16:02:49 2023.
