 Gaussian 09, Revision D.01,
 Gaussian 09:  ES64L-G09RevD.01 24-Apr-2013

 ----------------------------------------------------------------------
 # opt freq=noraman b3lyp/6-311+g(d,p) pop=(npa,hirshfeld,chelpg,mbs) g
 eom=connectivity
 ----------------------------------------------------------------------

 -------------------
 Title Card Required
 -------------------
 Symbolic Z-matrix:
 Charge =  0 Multiplicity = 1

 SCF Done:  E(RB3LYP) =  -656.835226158     A.U. after   15 cycles
 SCF Done:  E(RB3LYP) =  -656.850370614     A.U. after   13 cycles
 SCF Done:  E(RB3LYP) =  -656.851272799     A.U. after   12 cycles
 SCF Done:  E(RB3LYP) =  -656.851376838     A.U. after   11 cycles
 SCF Done:  E(RB3LYP) =  -656.851358713     A.U. after   11 cycles
 SCF Done:  E(RB3LYP) =  -656.851381144     A.U. after   11 cycles
 SCF Done:  E(RB3LYP) =  -656.851384170     A.U. after   10 cycles
 SCF Done:  E(RB3LYP) =  -656.851384297     A.U. after    9 cycles
 SCF Done:  E(RB3LYP) =  -656.851384295     A.U. after    8 cycles
 SCF Done:  E(RB3LYP) =  -656.851384306     A.U. after    8 cycles
 Optimization completed.
    -- Stationary point found.
 Normal termination of Gaussian 09 at Thu Feb  2 15:49:17 2023.

 ----------------------------------------------------------------------
 #N Geom=AllCheck Guess=TCheck SCRF=Check GenChk RB3LYP/6-311+G(d,p) Fr
 eq
 ----------------------------------------------------------------------

 Structure from the checkpoint file:  "regiodevergent1n_Ishiyana.chk"
 -------------------
 Title Card Required
 -------------------
 Charge =  0 Multiplicity = 1

                         Standard orientation:
 ---------------------------------------------------------------------
 Center     Atomic      Atomic             Coordinates (Angstroms)
 Number     Number       Type             X           Y           Z
 ---------------------------------------------------------------------
      1          6           0       -0.387950    0.380653   -0.000014
      2          6           0        0.066514    1.674995   -0.000122
      3          6           0        1.485766    1.603702   -0.000123
      4          6           0        1.816815    0.271798   -0.000011
      5          8           0        0.666223   -0.472326    0.000081
      6          1           0       -0.540890    2.566128   -0.000194
      7          1           0        2.176307    2.432314   -0.000197
      8          6           0        3.095761   -0.448525    0.000043
      9          8           0        3.144420   -1.665278    0.000148
     10          6           0        4.355983    0.414341   -0.000050
     11          1           0        4.316906    1.075220   -0.874097
     12          1           0        4.316928    1.075377    0.873879
     13          6           0        5.644703   -0.404273    0.000008
     14          1           0        6.514549    0.257329   -0.000066
     15          1           0        5.700887   -1.048727    0.879157
     16          1           0        5.700862   -1.048889   -0.879024
     17          6           0       -1.752809   -0.232033    0.000039
     18          6           0       -2.552742    0.138799    1.270553
     19          6           0       -2.552699    0.138498   -1.270591
     20          1           0       -1.599994   -1.317581    0.000170
     21          6           0       -3.946542   -0.504707    1.266999
     22          1           0       -2.653489    1.230133    1.322420
     23          1           0       -1.992536   -0.167052    2.159258
     24          6           0       -3.946499   -0.505007   -1.266936
     25          1           0       -2.653445    1.229820   -1.322718
     26          1           0       -1.992462   -0.167561   -2.159205
     27          6           0       -4.734438   -0.146382   -0.000024
     28          1           0       -4.499226   -0.194603    2.159650
     29          1           0       -3.839604   -1.595193    1.331351
     30          1           0       -4.499152   -0.195114   -2.159679
     31          1           0       -3.839559   -1.595508   -1.331026
     32          1           0       -5.702884   -0.656695    0.000021
     33          1           0       -4.949513    0.930283   -0.000155
 ---------------------------------------------------------------------

 SCF Done:  E(RB3LYP) =  -656.851384307     A.U. after    1 cycles

 The electronic state is 1-A.
 Alpha  occ. eigenvalues --  -19.19791 -19.10606 -10.26103 -10.24338 -10.23104
 Alpha  occ. eigenvalues --  -10.19362 -10.19337 -10.18194 -10.18133 -10.17653
 Alpha  occ. eigenvalues --  -10.17653 -10.17198 -10.17197 -10.17077 -10.15955
 Alpha  occ. eigenvalues --   -1.12668  -1.03942  -0.85055  -0.82009  -0.79622
 Alpha  occ. eigenvalues --   -0.77738  -0.75216  -0.73799  -0.66810  -0.62885
 Alpha  occ. eigenvalues --   -0.62158  -0.62083  -0.57784  -0.56534  -0.55308
 Alpha  occ. eigenvalues --   -0.50845  -0.48300  -0.47914  -0.47121  -0.45905
 Alpha  occ. eigenvalues --   -0.45126  -0.44820  -0.44674  -0.42452  -0.41654
 Alpha  occ. eigenvalues --   -0.40167  -0.39413  -0.38960  -0.38288  -0.37833
 Alpha  occ. eigenvalues --   -0.37743  -0.36612  -0.35484  -0.35399  -0.34758
 Alpha  occ. eigenvalues --   -0.32994  -0.31877  -0.31556  -0.29801  -0.25559
 Alpha  occ. eigenvalues --   -0.23857
 Alpha virt. eigenvalues --   -0.05866  -0.00514   0.00260   0.01007   0.01561
 Alpha virt. eigenvalues --    0.02037   0.02058   0.02564   0.03754   0.03860
 Alpha virt. eigenvalues --    0.04158   0.04897   0.05144   0.05647   0.05972

 Mulliken charges:
               1
     1  C    0.215544
     2  C   -0.476446
     3  C   -0.524630
     4  C    0.612966
     5  O   -0.004853
     6  H    0.117870
     7  H    0.135731
     8  C    0.022083
     9  O   -0.265602
    10  C   -0.040274
    11  H    0.164039
    12  H    0.164038
    13  C   -0.660570
    14  H    0.132770
    15  H    0.153375
    16  H    0.153375
    17  C   -0.061963
    18  C   -0.221007
    19  C   -0.221004
    20  H    0.171011
    21  C   -0.360886
    22  H    0.147621
    23  H    0.151156
    24  C   -0.360877
    25  H    0.147623
    26  H    0.151155
    27  C   -0.329045
    28  H    0.149885
    29  H    0.148680
    30  H    0.149885
    31  H    0.148680
    32  H    0.147900
    33  H    0.141768
 Sum of Mulliken charges =   0.00000

 Dipole moment (field-independent basis, Debye):
    X=             -2.0455    Y=              3.5971    Z=             -0.0003  Tot=              4.1380
 Quadrupole moment (field-independent basis, Debye-Ang):
   XX=            -86.1067   YY=            -94.6265   ZZ=            -92.2225
   XY=             10.4575   XZ=             -0.0010   YZ=              0.0003

  Exact polarizability: 221.832  -5.844 144.989   0.000  -0.002 120.237
 Approx polarizability: 258.356 -17.805 254.892   0.001  -0.007 176.550

 ESP charges:
               1
     1  C    0.222617
     2  C   -0.244879
     3  C   -0.160625
     4  C    0.030979
     5  O   -0.229732
     6  H    0.142916
     7  H    0.137341
     8  C    0.464991
     9  O   -0.502947
    10  C    0.131130
    11  H   -0.036434
    12  H   -0.036436
    13  C   -0.126993
    14  H    0.029114
    15  H    0.036170
    16  H    0.036166
    17  C    0.198679
    18  C   -0.091253
    19  C   -0.091248
    20  H   -0.015214
    21  C    0.183581
    22  H   -0.008171
    23  H   -0.002661
    24  C    0.183580
    25  H   -0.008179
    26  H   -0.002657
    27  C   -0.082738
    28  H   -0.037655
    29  H   -0.041843
    30  H   -0.037661
    31  H   -0.041835
    32  H   -0.010411
    33  H    0.012304
 Sum of ESP charges =   0.00000

 Summary of Natural Population Analysis:

                                       Natural Population
                Natural  -----------------------------------------------
    Atom  No    Charge         Core      Valence    Rydberg      Total
 -----------------------------------------------------------------------
      C    1    0.36855      1.99893     3.60155    0.03097     5.63145
      C    2   -0.31388      1.99901     4.29984    0.01503     6.31388
      C    3   -0.23290      1.99908     4.21894    0.01488     6.23290
      C    4    0.17910      1.99885     3.79533    0.02672     5.82090
      O    5   -0.44030      1.99969     6.42354    0.01707     8.44030
      H    6    0.22442      0.00000     0.77397    0.00162     0.77558
      H    7    0.22382      0.00000     0.77455    0.00164     0.77618
      C    8    0.50707      1.99924     3.45420    0.03949     5.49293
      O    9   -0.55052      1.99976     6.53768    0.01307     8.55052
      C   10   -0.46727      1.99925     4.45693    0.01108     6.46727
      H   11    0.21403      0.00000     0.78385    0.00212     0.78597
      H   12    0.21403      0.00000     0.78386    0.00212     0.78597
      C   13   -0.57564      1.99938     4.56533    0.01093     6.57564
      H   14    0.19744      0.00000     0.80131    0.00125     0.80256
      H   15    0.20920      0.00000     0.78920    0.00160     0.79080
      H   16    0.20920      0.00000     0.78920    0.00160     0.79080
      C   17   -0.27599      1.99911     4.25796    0.01893     6.27599
      C   18   -0.36767      1.99926     4.35342    0.01499     6.36767
      C   19   -0.36767      1.99926     4.35342    0.01499     6.36767
      H   20    0.22001      0.00000     0.77575    0.00424     0.77999
      C   21   -0.38450      1.99928     4.37018    0.01503     6.38450
      H   22    0.19128      0.00000     0.80657    0.00215     0.80872
      H   23    0.20829      0.00000     0.79031    0.00140     0.79171
      C   24   -0.38450      1.99928     4.37018    0.01503     6.38450
      H   25    0.19128      0.00000     0.80657    0.00215     0.80872
      H   26    0.20829      0.00000     0.79031    0.00140     0.79171
      C   27   -0.38444      1.99929     4.37021    0.01495     6.38444
      H   28    0.20301      0.00000     0.79535    0.00164     0.79699
      H   29    0.19157      0.00000     0.80623    0.00220     0.80843
      H   30    0.20301      0.00000     0.79535    0.00164     0.79699
      H   31    0.19157      0.00000     0.80623    0.00220     0.80843
      H   32    0.20203      0.00000     0.79649    0.00148     0.79797
      H   33    0.18808      0.00000     0.80966    0.00226     0.81192
 =======================================================================
   * Total *    0.00000     29.98867    81.70346    0.30787   112.00000

 ******    1 imaginary frequencies (negative Signs) ******

                      1                      2                      3
                      A                      A                      A
 Frequencies --    -20.8466                34.1727                43.7835
 Red. masses --      3.6129                 2.3290                 2.5956
 Frc consts  --      0.0009                 0.0016                 0.0029
 IR Inten    --      0.4121                 0.1964                 3.9078

                      4                      5                      6
                      A                      A                      A
 Frequencies --     63.8337               105.5649               131.2273
 Red. masses --      3.8497                 4.7169                 3.3399
 Frc consts  --      0.0092                 0.0310                 0.0339
 IR Inten    --      1.0441                 0.0409                 1.0942

                      7                      8                      9
                      A                      A                      A
 Frequencies --    149.7153               201.4273               213.8245
 Red. masses --      3.9887                 1.2460                 3.8553
 Frc consts  --      0.0527                 0.0298                 0.1039
 IR Inten    --      0.0047                 0.5130                 0.5666

                     10                     11                     12
                      A                      A                      A
 Frequencies --    227.7531               244.1885               292.8697
 Red. masses --      1.7735                 3.4142                 3.4690
 Frc consts  --      0.0542                 0.1199                 0.1753
 IR Inten    --      0.0005                 1.8555                 9.6942

                     13                     14                     15
                      A                      A                      A
 Frequencies --    345.4786               360.5673               391.7827
 Red. masses --      2.0262                 4.5740                 3.5699
 Frc consts  --      0.1425                 0.3504                 0.3228
 IR Inten    --      0.3353                 2.3776                 0.1975

                     16                     17                     18
                      A                      A                      A
 Frequencies --    439.9733               474.0952               504.1323
 Red. masses --      3.0506                 3.7900                 1.6414
 Frc consts  --      0.3479                 0.5019                 0.2458
 IR Inten    --      0.0002                 2.1162                 0.2063

                     19                     20                     21
                      A                      A                      A
 Frequencies --    526.0463               538.2804               661.4876
 Red. masses --      4.2345                 2.6361                 3.2343
 Frc consts  --      0.6904                 0.4500                 0.8338
 IR Inten    --      3.7114                 0.4987                 0.0114

                     22                     23                     24
                      A                      A                      A
 Frequencies --    708.0144               713.8859               747.7843
 Red. masses --      3.5441                 5.1197                 2.6316
 Frc consts  --      1.0467                 1.5373                 0.8670
 IR Inten    --      3.4802                 0.5322                 3.4504

                     25                     26                     27
                      A                      A                      A
 Frequencies --    794.0015               802.7880               813.5635
 Red. masses --      1.4570                 1.2741                 3.3917
 Frc consts  --      0.5412                 0.4838                 1.3227
 IR Inten    --      1.1526                49.8104                 0.4535

                     28                     29                     30
                      A                      A                      A
 Frequencies --    818.8262               855.6950               883.0702
 Red. masses --      1.4917                 1.9741                 1.3944
 Frc consts  --      0.5893                 0.8517                 0.6407
 IR Inten    --      0.5308                 2.3485                 0.0435

                     31                     32                     33
                      A                      A                      A
 Frequencies --    895.4398               899.7342               916.0594
 Red. masses --      1.8724                 1.8237                 5.2143
 Frc consts  --      0.8846                 0.8698                 2.5781
 IR Inten    --      0.4550                 3.3185                57.9946

                     34                     35                     36
                      A                      A                      A
 Frequencies --    932.1059               980.7707               993.5904
 Red. masses --      1.5764                 3.5098                 2.9881
 Frc consts  --      0.8070                 1.9891                 1.7380
 IR Inten    --      0.3919                 3.8843                14.2860

                     37                     38                     39
                      A                      A                      A
 Frequencies --   1026.0858              1034.7268              1036.6895
 Red. masses --      2.0479                 2.0882                 1.9093
 Frc consts  --      1.2704                 1.3173                 1.2090
 IR Inten    --     25.5068                 4.8889                 1.3269

                     40                     41                     42
                      A                      A                      A
 Frequencies --   1051.3462              1054.7549              1088.6107
 Red. masses --      1.4957                 1.7151                 1.7752
 Frc consts  --      0.9740                 1.1242                 1.2395
 IR Inten    --     95.4308                 0.0008                 0.0368

                     43                     44                     45
                      A                      A                      A
 Frequencies --   1089.1090              1094.4988              1110.1167
 Red. masses --      2.5142                 1.0825                 2.4718
 Frc consts  --      1.7571                 0.7640                 1.7947
 IR Inten    --      0.0217                 0.0093                29.5607

                     46                     47                     48
                      A                      A                      A
 Frequencies --   1143.1201              1197.3379              1202.3390
 Red. masses --      2.5186                 3.0165                 1.3798
 Frc consts  --      1.9391                 2.5480                 1.1752
 IR Inten    --      1.0855                 3.5974                 0.1599

                     49                     50                     51
                      A                      A                      A
 Frequencies --   1230.6059              1273.0324              1281.1020
 Red. masses --      1.5406                 1.7672                 1.1803
 Frc consts  --      1.3746                 1.6874                 1.1413
 IR Inten    --     37.3832                34.2401                 0.1625

                     52                     53                     54
                      A                      A                      A
 Frequencies --   1281.3814              1287.7540              1294.1293
 Red. masses --      2.6589                 1.2795                 1.2519
 Frc consts  --      2.5722                 1.2501                 1.2353
 IR Inten    --     67.9801                 1.4476                 2.5328

                     55                     56                     57
                      A                      A                      A
 Frequencies --   1332.3006              1336.9840              1359.1562
 Red. masses --      1.2518                 1.6887                 1.2986
 Frc consts  --      1.3092                 1.7785                 1.4134
 IR Inten    --      0.0640                 6.7408                 0.0242

                     58                     59                     60
                      A                      A                      A
 Frequencies --   1368.7735              1372.5781              1378.5558
 Red. masses --      1.3385                 1.9904                 1.4612
 Frc consts  --      1.4775                 2.2093                 1.6361
 IR Inten    --      0.0004                22.2885                 0.0008

                     61                     62                     63
                      A                      A                      A
 Frequencies --   1379.1313              1385.7242              1416.3181
 Red. masses --      1.6058                 1.5473                 1.2267
 Frc consts  --      1.7995                 1.7505                 1.4498
 IR Inten    --     26.4116                 1.6183                 6.5725

                     64                     65                     66
                      A                      A                      A
 Frequencies --   1428.7581              1464.0375              1483.3047
 Red. masses --      2.4097                 1.0882                 1.0859
 Frc consts  --      2.8982                 1.3742                 1.4077
 IR Inten    --      6.9831                 9.7460                 0.1128

                     67                     68                     69
                      A                      A                      A
 Frequencies --   1487.2740              1488.0218              1490.7542
 Red. masses --      1.0905                 1.0926                 1.0369
 Frc consts  --      1.4212                 1.4254                 1.3577
 IR Inten    --      3.5554                 5.5291                 7.7353

                     70                     71                     72
                      A                      A                      A
 Frequencies --   1493.2791              1500.8535              1505.7262
 Red. masses --      1.0817                 1.0513                 1.0985
 Frc consts  --      1.4211                 1.3952                 1.4673
 IR Inten    --     13.6982                11.8683                 0.8926

                     73                     74                     75
                      A                      A                      A
 Frequencies --   1527.8700              1605.0279              1733.3344
 Red. masses --      8.3491                 5.8363                11.2733
 Frc consts  --     11.4832                 8.8584                19.9557
 IR Inten    --    232.3088                 6.1151               281.0894

                     76                     77                     78
                      A                      A                      A
 Frequencies --   2998.8952              3003.0018              3007.0872
 Red. masses --      1.0713                 1.0685                 1.0665
 Frc consts  --      5.6766                 5.6772                 5.6821
 IR Inten    --     17.3548                22.6679                 5.7540

                     79                     80                     81
                      A                      A                      A
 Frequencies --   3010.5755              3010.9207              3018.3980
 Red. masses --      1.0615                 1.0633                 1.0601
 Frc consts  --      5.6686                 5.6792                 5.6905
 IR Inten    --      0.0247                45.5666                24.7891

                     82                     83                     84
                      A                      A                      A
 Frequencies --   3030.8068              3040.9654              3045.5687
 Red. masses --      1.0797                 1.0359                 1.1003
 Frc consts  --      5.8433                 5.6439                 6.0129
 IR Inten    --     19.3354                32.7842                 7.4110

                     85                     86                     87
                      A                      A                      A
 Frequencies --   3050.7214              3051.7429              3055.2312
 Red. masses --      1.0959                 1.0910                 1.0991
 Frc consts  --      6.0093                 5.9864                 6.0447
 IR Inten    --     63.5299                69.8570                30.3936

                     88                     89                     90
                      A                      A                      A
 Frequencies --   3059.7235              3065.5003              3104.4131
 Red. masses --      1.0999                 1.1016                 1.1013
 Frc consts  --      6.0670                 6.0993                 6.2532
 IR Inten    --     24.5144                68.6544                22.5516

                     91                     92                     93
                      A                      A                      A
 Frequencies --   3113.6942              3239.7490              3252.8327
 Red. masses --      1.1024                 1.0930                 1.1016
 Frc consts  --      6.2969                 6.7591                 6.8678
 IR Inten    --     23.2277                 6.4686                 0.1414

 - Thermochemistry -
 -------------------
 Temperature   298.150 Kelvin.  Pressure   1.00000 Atm.
 Atom     1 has atomic number  6 and mass  12.00000

 Molecular mass:   206.13068 amu.
 Principal axes and moments of inertia in atomic units:
                           1         2         3
     Eigenvalues --   941.797647870.010698052.86240
           X            0.99998   0.00621   0.00000
           Y           -0.00621   0.99998   0.00001
           Z            0.00000  -0.00001   1.00000
 This molecule is an asymmetric top.
 Rotational symmetry number  1.
 Warning -- assumption of classical behavior for rotation
           may cause significant error
 Rotational temperatures (Kelvin)      0.09197     0.01101     0.01076
 Rotational constants (GHZ):           1.91627     0.22932     0.22411
    1 imaginary frequencies ignored.
 Zero-point vibrational energy     748741.9 (Joules/Mol)
                                  178.95360 (Kcal/Mol)
 Warning -- explicit consideration of  19 degrees of freedom as
           vibrations may cause significant error
 Vibrational temperatures:     49.17    62.99    91.84   151.88   188.81
          (Kelvin)            215.41   289.81   307.65   327.69   351.33
                              421.37   497.07   518.78   563.69   633.02
                              682.12   725.33   756.86   774.46   951.73
                             1018.67  1027.12  1075.89  1142.39  1155.03
                             1170.53  1178.11  1231.15  1270.54  1288.34
                             1294.52  1318.00  1341.09  1411.11  1429.55
                             1476.31  1488.74  1491.56  1512.65  1517.56
                             1566.27  1566.98  1574.74  1597.21  1644.69
                             1722.70  1729.90  1770.57  1831.61  1843.22
                             1843.62  1852.79  1861.96  1916.88  1923.62
                             1955.52  1969.36  1974.83  1983.43  1984.26
                             1993.75  2037.76  2055.66  2106.42  2134.14
                             2139.85  2140.93  2144.86  2148.49  2159.39
                             2166.40  2198.26  2309.27  2493.88  4314.74
                             4320.64  4326.52  4331.54  4332.04  4342.80
                             4360.65  4375.27  4381.89  4389.30  4390.77
                             4395.79  4402.25  4410.57  4466.55  4479.91
                             4661.27  4680.09

 Zero-point correction=                           0.285181 (Hartree/Particle)
 Thermal correction to Energy=                    0.298968
 Thermal correction to Enthalpy=                  0.299913
 Thermal correction to Gibbs Free Energy=         0.243593
 Sum of electronic and zero-point Energies=           -656.566204
 Sum of electronic and thermal Energies=              -656.552416
 Sum of electronic and thermal Enthalpies=            -656.551472
 Sum of electronic and thermal Free Energies=         -656.607791

                     E (Thermal)             CV                S
                      KCal/Mol        Cal/Mol-Kelvin    Cal/Mol-Kelvin
 Total                  187.606             53.491            118.534
 Electronic               0.000              0.000              0.000
 Translational            0.889              2.981             41.874
 Rotational               0.889              2.981             32.457
 Vibrational            185.828             47.529             44.203
 Vibration     1          0.594              1.983              5.571
 Vibration     2          0.595              1.980              5.080
 Vibration     3          0.597              1.972              4.335
 Vibration     4          0.605              1.945              3.349
 Vibration     5          0.612              1.922              2.928
 Vibration     6          0.618              1.903              2.676
 Vibration     7          0.638              1.838              2.120
 Vibration     8          0.644              1.820              2.011
 Vibration     9          0.651              1.799              1.897
 Vibration    10          0.660              1.772              1.772
 Vibration    11          0.688              1.687              1.457
 Vibration    12          0.724              1.584              1.187
 Vibration    13          0.735              1.554              1.120
 Vibration    14          0.759              1.488              0.993
 Vibration    15          0.800              1.383              0.827
 Vibration    16          0.831              1.308              0.726
 Vibration    17          0.859              1.241              0.648
 Vibration    18          0.881              1.192              0.596
 Vibration    19          0.893              1.165              0.569

 Optimization completed.
    -- Stationary point found.
 Normal termination of Gaussian 09 at Thu Feb  2 16:00:14 2023.
