 Gaussian 09, Revision D.01,
 Gaussian 09:  ES64L-G09RevD.01 24-Apr-2013

 ----------------------------------------------------------------------
 # opt freq=noraman b3lyp/6-311+g(d,p) pop=(npa,hirshfeld,chelpg,mbs) g
 eom=connectivity
 ----------------------------------------------------------------------

 -------------------
 Title Card Required
 -------------------
 Symbolic Z-matrix:
 Charge =  0 Multiplicity = 1

 SCF Done:  E(RB3LYP) =  -579.396240297     A.U. after   15 cycles
 SCF Done:  E(RB3LYP) =  -579.409041447     A.U. after   13 cycles
 SCF Done:  E(RB3LYP) =  -579.411415370     A.U. after   12 cycles
 SCF Done:  E(RB3LYP) =  -579.412016454     A.U. after   12 cycles
 SCF Done:  E(RB3LYP) =  -579.408952390     A.U. after   13 cycles
 SCF Done:  E(RB3LYP) =  -579.412034513     A.U. after    9 cycles
 SCF Done:  E(RB3LYP) =  -579.412049062     A.U. after   10 cycles
 SCF Done:  E(RB3LYP) =  -579.412049737     A.U. after   10 cycles
 SCF Done:  E(RB3LYP) =  -579.412049863     A.U. after    9 cycles
 SCF Done:  E(RB3LYP) =  -579.412049891     A.U. after    8 cycles
 SCF Done:  E(RB3LYP) =  -579.412049903     A.U. after    8 cycles
 Optimization completed.
    -- Stationary point found.
 Normal termination of Gaussian 09 at Thu Feb  2 15:47:09 2023.

 ----------------------------------------------------------------------
 #N Geom=AllCheck Guess=TCheck SCRF=Check GenChk RB3LYP/6-311+G(d,p) Fr
 eq
 ----------------------------------------------------------------------

 Structure from the checkpoint file:  "regiodevergent1o_Ishiyana.chk"
 -------------------
 Title Card Required
 -------------------
 Charge =  0 Multiplicity = 1

                         Standard orientation:
 ---------------------------------------------------------------------
 Center     Atomic      Atomic             Coordinates (Angstroms)
 Number     Number       Type             X           Y           Z
 ---------------------------------------------------------------------
      1          6           0       -1.249041    0.412421    0.000012
      2          6           0       -0.819663    1.714433    0.000087
      3          6           0        0.602600    1.671179    0.000148
      4          6           0        0.958531    0.347109    0.000124
      5          8           0       -0.176583   -0.419350    0.000062
      6          1           0       -1.442020    2.594057    0.000090
      7          1           0        1.276319    2.513423    0.000197
      8          6           0       -2.606474   -0.240538   -0.000073
      9          6           0        2.250914   -0.350502    0.000162
     10          8           0        2.319118   -1.566225    0.000373
     11          6           0        3.496047    0.533223   -0.000015
     12          1           0        3.445424    1.193595   -0.873853
     13          1           0        3.445787    1.193337    0.874046
     14          6           0        4.798465   -0.263447   -0.000396
     15          1           0        5.656859    0.412880   -0.000440
     16          1           0        4.865847   -0.907015    0.878605
     17          1           0        4.865529   -0.906709   -0.879648
     18          6           0       -2.746989   -1.122352   -1.262781
     19          1           0       -1.975689   -1.894321   -1.289625
     20          1           0       -3.724901   -1.612321   -1.268235
     21          1           0       -2.661308   -0.521803   -2.172502
     22          6           0       -2.747024   -1.122600    1.262455
     23          1           0       -2.661382   -0.522236    2.172301
     24          1           0       -3.724927   -1.612587    1.267773
     25          1           0       -1.975708   -1.894560    1.289176
     26          6           0       -3.699838    0.841654    0.000024
     27          1           0       -3.634869    1.478151   -0.886698
     28          1           0       -4.685465    0.369283   -0.000073
     29          1           0       -3.634937    1.477930    0.886911
 ---------------------------------------------------------------------

 SCF Done:  E(RB3LYP) =  -579.412049903     A.U. after    1 cycles

 The electronic state is 1-A.
 Alpha  occ. eigenvalues --  -19.19712 -19.10792 -10.26264 -10.24331 -10.23305
 Alpha  occ. eigenvalues --  -10.20764 -10.19396 -10.18324 -10.18254 -10.17184
 Alpha  occ. eigenvalues --  -10.16642 -10.16642 -10.16056  -1.12726  -1.04121
 Alpha  occ. eigenvalues --   -0.84305  -0.82123  -0.78608  -0.75531  -0.70033
 Alpha  occ. eigenvalues --   -0.69530  -0.66913  -0.62044  -0.61105  -0.56498
 Alpha  occ. eigenvalues --   -0.55250  -0.50044  -0.48185  -0.47593  -0.46227
 Alpha  occ. eigenvalues --   -0.45239  -0.44828  -0.44464  -0.42946  -0.41954
 Alpha  occ. eigenvalues --   -0.39767  -0.39604  -0.39296  -0.38082  -0.37997
 Alpha  occ. eigenvalues --   -0.37633  -0.36720  -0.35526  -0.34951  -0.34568
 Alpha  occ. eigenvalues --   -0.34125  -0.29902  -0.25728  -0.24136
 Alpha virt. eigenvalues --   -0.06077  -0.00544   0.00448   0.01684   0.01777
 Alpha virt. eigenvalues --    0.02664   0.02737   0.02986   0.04213   0.04280
 Alpha virt. eigenvalues --    0.04985   0.05305   0.05848   0.06268   0.06561

 Mulliken charges:
               1
     1  C    0.106185
     2  C   -0.320669
     3  C   -0.388506
     4  C    0.677307
     5  O    0.010266
     6  H    0.126358
     7  H    0.135970
     8  C    0.340669
     9  C   -0.229333
    10  O   -0.258432
    11  C   -0.028541
    12  H    0.162965
    13  H    0.162996
    14  C   -0.661803
    15  H    0.132983
    16  H    0.153437
    17  H    0.153419
    18  C   -0.513732
    19  H    0.171711
    20  H    0.139986
    21  H    0.142256
    22  C   -0.513750
    23  H    0.142255
    24  H    0.139986
    25  H    0.171718
    26  C   -0.586616
    27  H    0.141130
    28  H    0.148650
    29  H    0.141137
 Sum of Mulliken charges =   0.00000

 Dipole moment (field-independent basis, Debye):
    X=             -1.6522    Y=              3.4809    Z=             -0.0005  Tot=              3.8531
 Quadrupole moment (field-independent basis, Debye-Ang):
   XX=            -73.2081   YY=            -82.1665   ZZ=            -80.8335
   XY=              7.5190   XZ=             -0.0007   YZ=              0.0016

  Exact polarizability: 183.874  -5.009 135.488   0.001   0.000 101.175
 Approx polarizability: 225.448 -15.384 228.244   0.004  -0.002 150.082

 ESP charges:
               1
     1  C    0.195616
     2  C   -0.233473
     3  C   -0.148401
     4  C   -0.020760
     5  O   -0.143295
     6  H    0.139923
     7  H    0.136067
     8  C    0.238793
     9  C    0.453116
    10  O   -0.502588
    11  C    0.173531
    12  H   -0.043275
    13  H   -0.043256
    14  C   -0.163471
    15  H    0.035270
    16  H    0.045010
    17  H    0.044926
    18  C   -0.120175
    19  H    0.024733
    20  H    0.039190
    21  H    0.017708
    22  C   -0.119955
    23  H    0.017645
    24  H    0.039138
    25  H    0.024679
    26  C   -0.295563
    27  H    0.061114
    28  H    0.086646
    29  H    0.061107
 Sum of ESP charges =   0.00000

 Summary of Natural Population Analysis:

                                       Natural Population
                Natural  -----------------------------------------------
    Atom  No    Charge         Core      Valence    Rydberg      Total
 -----------------------------------------------------------------------
      C    1    0.36823      1.99887     3.60148    0.03142     5.63177
      C    2   -0.31314      1.99901     4.29955    0.01459     6.31314
      C    3   -0.23226      1.99908     4.21821    0.01497     6.23226
      C    4    0.18215      1.99885     3.79223    0.02677     5.81785
      O    5   -0.44988      1.99969     6.43286    0.01733     8.44988
      H    6    0.22775      0.00000     0.77072    0.00153     0.77225
      H    7    0.22434      0.00000     0.77407    0.00159     0.77566
      C    8   -0.13414      1.99911     4.11956    0.01547     6.13414
      C    9    0.50828      1.99924     3.45314    0.03934     5.49172
      O   10   -0.54991      1.99976     6.53706    0.01309     8.54991
      C   11   -0.46750      1.99925     4.45720    0.01105     6.46750
      H   12    0.21444      0.00000     0.78345    0.00211     0.78556
      H   13    0.21445      0.00000     0.78344    0.00211     0.78555
      C   14   -0.57564      1.99938     4.56535    0.01092     6.57564
      H   15    0.19774      0.00000     0.80101    0.00125     0.80226
      H   16    0.20927      0.00000     0.78914    0.00159     0.79073
      H   17    0.20925      0.00000     0.78915    0.00159     0.79075
      C   18   -0.56215      1.99930     4.55124    0.01161     6.56215
      H   19    0.21670      0.00000     0.78212    0.00119     0.78330
      H   20    0.20054      0.00000     0.79823    0.00123     0.79946
      H   21    0.20374      0.00000     0.79507    0.00118     0.79626
      C   22   -0.56215      1.99930     4.55124    0.01161     6.56215
      H   23    0.20375      0.00000     0.79507    0.00118     0.79625
      H   24    0.20054      0.00000     0.79823    0.00123     0.79946
      H   25    0.21670      0.00000     0.78211    0.00119     0.78330
      C   26   -0.56751      1.99931     4.55695    0.01125     6.56751
      H   27    0.20464      0.00000     0.79403    0.00134     0.79536
      H   28    0.20714      0.00000     0.79169    0.00117     0.79286
      H   29    0.20464      0.00000     0.79402    0.00134     0.79536
 =======================================================================
   * Total *    0.00000     25.99014    71.75764    0.25222    98.00000

                      1                      2                      3
                      A                      A                      A
 Frequencies --     31.0894                39.9405                51.5971
 Red. masses --      1.8917                 3.7796                 3.1368
 Frc consts  --      0.0011                 0.0036                 0.0049
 IR Inten    --      0.0610                 2.5445                 2.0110

                      4                      5                      6
                      A                      A                      A
 Frequencies --     95.6031               119.2385               173.7643
 Red. masses --      3.8633                 5.0499                 2.2927
 Frc consts  --      0.0208                 0.0423                 0.0408
 IR Inten    --      1.8643                 0.2296                 0.1734

                      7                      8                      9
                      A                      A                      A
 Frequencies --    195.3100               206.6798               230.1463
 Red. masses --      3.3224                 1.3849                 1.0389
 Frc consts  --      0.0747                 0.0349                 0.0324
 IR Inten    --      0.6235                 0.3126                 0.0051

                     10                     11                     12
                      A                      A                      A
 Frequencies --    262.1436               278.9269               284.2786
 Red. masses --      2.1628                 1.0480                 1.2879
 Frc consts  --      0.0876                 0.0480                 0.0613
 IR Inten    --      0.1583                 0.0001                 0.7223

                     13                     14                     15
                      A                      A                      A
 Frequencies --    290.6217               335.7270               339.5154
 Red. masses --      3.4956                 2.6025                 2.6372
 Frc consts  --      0.1739                 0.1728                 0.1791
 IR Inten    --     10.1735                 0.6894                 0.4850

                     16                     17                     18
                      A                      A                      A
 Frequencies --    388.4007               425.4811               474.6663
 Red. masses --      3.1757                 3.1149                 5.0065
 Frc consts  --      0.2823                 0.3322                 0.6646
 IR Inten    --      0.1583                 1.9497                 2.1421

                     19                     20                     21
                      A                      A                      A
 Frequencies --    529.8076               539.9070               591.4830
 Red. masses --      4.2767                 2.6076                 3.1042
 Frc consts  --      0.7073                 0.4478                 0.6399
 IR Inten    --      4.6181                 0.2348                 0.2009

                     22                     23                     24
                      A                      A                      A
 Frequencies --    660.7204               710.2028               728.4256
 Red. masses --      3.1601                 3.5569                 4.6870
 Frc consts  --      0.8128                 1.0570                 1.4653
 IR Inten    --      0.0734                 3.9129                 1.2745

                     25                     26                     27
                      A                      A                      A
 Frequencies --    804.7650               820.4809               822.1534
 Red. masses --      1.2800                 1.4754                 2.7246
 Frc consts  --      0.4884                 0.5852                 1.0851
 IR Inten    --     46.9779                 2.1443                 4.6476

                     28                     29                     30
                      A                      A                      A
 Frequencies --    883.2634               915.5696               929.0314
 Red. masses --      1.3898                 5.1967                 1.8121
 Frc consts  --      0.6388                 2.5666                 0.9215
 IR Inten    --      0.1309                48.3738                 0.6254

                     31                     32                     33
                      A                      A                      A
 Frequencies --    943.0653               967.0662               975.7084
 Red. masses --      1.7292                 1.2028                 4.5086
 Frc consts  --      0.9061                 0.6628                 2.5289
 IR Inten    --      5.2396                 0.0027                 5.9154

                     34                     35                     36
                      A                      A                      A
 Frequencies --    993.4472              1024.4667              1046.6440
 Red. masses --      2.9618                 1.7149                 1.3983
 Frc consts  --      1.7222                 1.0604                 0.9025
 IR Inten    --     15.0322                20.8426                 0.0198

                     37                     38                     39
                      A                      A                      A
 Frequencies --   1049.9783              1053.5174              1088.9658
 Red. masses --      1.5933                 1.3606                 1.6551
 Frc consts  --      1.0349                 0.8898                 1.1564
 IR Inten    --     25.2530                65.3443                 0.0683

                     40                     41                     42
                      A                      A                      A
 Frequencies --   1111.7991              1161.7815              1216.8628
 Red. masses --      2.5151                 2.8852                 2.2091
 Frc consts  --      1.8317                 2.2945                 1.9273
 IR Inten    --     36.6828                 0.2383                 2.8264

                     43                     44                     45
                      A                      A                      A
 Frequencies --   1220.6929              1244.9922              1269.7854
 Red. masses --      2.6781                 2.3355                 3.1762
 Frc consts  --      2.3512                 2.1328                 3.0173
 IR Inten    --      3.7971                 2.5192               157.8708

                     46                     47                     48
                      A                      A                      A
 Frequencies --   1281.0926              1301.6941              1370.1421
 Red. masses --      1.1800                 3.6107                 2.1189
 Frc consts  --      1.1411                 3.6046                 2.3436
 IR Inten    --      0.1544                21.4065                17.7975

                     49                     50                     51
                      A                      A                      A
 Frequencies --   1390.6193              1395.1874              1404.1235
 Red. masses --      1.8667                 1.2039                 1.8436
 Frc consts  --      2.1269                 1.3807                 2.1415
 IR Inten    --     33.8582                 7.8685                 1.6231

                     52                     53                     54
                      A                      A                      A
 Frequencies --   1416.5003              1427.1305              1463.8148
 Red. masses --      1.2256                 1.2386                 1.0877
 Frc consts  --      1.4488                 1.4863                 1.3732
 IR Inten    --      7.1114                 0.1541                 9.6080

                     55                     56                     57
                      A                      A                      A
 Frequencies --   1479.5999              1491.0187              1492.9873
 Red. masses --      1.0466                 1.0369                 1.0477
 Frc consts  --      1.3499                 1.3582                 1.3759
 IR Inten    --      0.0672                 7.8158                 0.0312

                     58                     59                     60
                      A                      A                      A
 Frequencies --   1493.6267              1500.9922              1502.5618
 Red. masses --      1.0447                 1.0514                 1.0552
 Frc consts  --      1.3732                 1.3957                 1.4036
 IR Inten    --      0.0434                11.6495                10.5373

                     61                     62                     63
                      A                      A                      A
 Frequencies --   1504.9108              1513.3254              1541.4624
 Red. masses --      1.0488                 1.4961                 2.5120
 Frc consts  --      1.3994                 2.0187                 3.5167
 IR Inten    --      9.7951                28.4767               163.8355

                     64                     65                     66
                      A                      A                      A
 Frequencies --   1604.3416              1733.7271              3018.5292
 Red. masses --      5.8774                11.2864                 1.0601
 Frc consts  --      8.9130                19.9879                 5.6910
 IR Inten    --      5.7399               253.6212                23.3813

                     67                     68                     69
                      A                      A                      A
 Frequencies --   3024.0462              3024.7767              3031.3200
 Red. masses --      1.0344                 1.0347                 1.0358
 Frc consts  --      5.5731                 5.5778                 5.6075
 IR Inten    --     19.8027                28.4481                28.1801

                     70                     71                     72
                      A                      A                      A
 Frequencies --   3041.2840              3045.6464              3087.6418
 Red. masses --      1.0358                 1.1002                 1.1028
 Frc consts  --      5.6447                 6.0131                 6.1946
 IR Inten    --     30.5727                 7.4962                 2.0041

                     73                     74                     75
                      A                      A                      A
 Frequencies --   3089.4711              3092.5470              3096.1587
 Red. masses --      1.1024                 1.1022                 1.1013
 Frc consts  --      6.1993                 6.2110                 6.2201
 IR Inten    --      5.9799                37.0702                68.9529

                     76                     77                     78
                      A                      A                      A
 Frequencies --   3104.8266              3107.9618              3111.7265
 Red. masses --      1.1013                 1.1022                 1.1013
 Frc consts  --      6.2553                 6.2726                 6.2827
 IR Inten    --     22.2122                 3.9626                28.1345

                     79                     80                     81
                      A                      A                      A
 Frequencies --   3113.8518              3244.8989              3260.5399
 Red. masses --      1.1024                 1.0939                 1.1005
 Frc consts  --      6.2976                 6.7862                 6.8930
 IR Inten    --     23.1222                 4.0975                 0.6685

 - Thermochemistry -
 -------------------
 Temperature   298.150 Kelvin.  Pressure   1.00000 Atm.
 Atom     1 has atomic number  6 and mass  12.00000

 Molecular mass:   180.11503 amu.
 Principal axes and moments of inertia in atomic units:
                           1         2         3
     Eigenvalues --   906.386084659.484345144.14282
           X            0.99995   0.01033   0.00000
           Y           -0.01033   0.99995   0.00001
           Z            0.00000  -0.00001   1.00000
 This molecule is an asymmetric top.
 Rotational symmetry number  1.
 Warning -- assumption of classical behavior for rotation
           may cause significant error
 Rotational temperatures (Kelvin)      0.09556     0.01859     0.01684
 Rotational constants (GHZ):           1.99114     0.38733     0.35083
 Zero-point vibrational energy     647968.0 (Joules/Mol)
                                  154.86808 (Kcal/Mol)
 Warning -- explicit consideration of  21 degrees of freedom as
           vibrations may cause significant error
 Vibrational temperatures:     44.73    57.47    74.24   137.55   171.56
          (Kelvin)            250.01   281.01   297.37   331.13   377.17
                              401.31   409.01   418.14   483.04   488.49
                              558.82   612.17   682.94   762.27   776.80
                              851.01   950.63  1021.82  1048.04  1157.88
                             1180.49  1182.89  1270.82  1317.30  1336.67
                             1356.86  1391.39  1403.83  1429.35  1473.98
                             1505.89  1510.68  1515.77  1566.78  1599.63
                             1671.54  1750.79  1756.30  1791.26  1826.94
                             1843.20  1872.85  1971.33  2000.79  2007.36
                             2020.22  2038.03  2053.32  2106.10  2128.81
                             2145.24  2148.07  2148.99  2159.59  2161.85
                             2165.23  2177.34  2217.82  2308.29  2494.44
                             4342.98  4350.92  4351.97  4361.39  4375.72
                             4382.00  4442.42  4445.05  4449.48  4454.68
                             4467.15  4471.66  4477.07  4480.13  4668.68
                             4691.18

 Zero-point correction=                           0.246798 (Hartree/Particle)
 Thermal correction to Energy=                    0.261083
 Thermal correction to Enthalpy=                  0.262027
 Thermal correction to Gibbs Free Energy=         0.205024
 Sum of electronic and zero-point Energies=           -579.165252
 Sum of electronic and thermal Energies=              -579.150967
 Sum of electronic and thermal Enthalpies=            -579.150023
 Sum of electronic and thermal Free Energies=         -579.207026

                     E (Thermal)             CV                S
                      KCal/Mol        Cal/Mol-Kelvin    Cal/Mol-Kelvin
 Total                  163.832             52.901            119.974
 Electronic               0.000              0.000              0.000
 Translational            0.889              2.981             41.472
 Rotational               0.889              2.981             31.452
 Vibrational            162.055             46.940             47.049
 Vibration     1          0.594              1.983              5.759
 Vibration     2          0.594              1.981              5.262
 Vibration     3          0.596              1.977              4.755
 Vibration     4          0.603              1.952              3.542
 Vibration     5          0.609              1.933              3.113
 Vibration     6          0.627              1.875              2.394
 Vibration     7          0.636              1.846              2.177
 Vibration     8          0.641              1.830              2.073
 Vibration     9          0.652              1.795              1.878
 Vibration    10          0.669              1.742              1.647
 Vibration    11          0.679              1.713              1.540
 Vibration    12          0.683              1.703              1.508
 Vibration    13          0.687              1.691              1.470
 Vibration    14          0.717              1.604              1.232
 Vibration    15          0.719              1.597              1.214
 Vibration    16          0.757              1.495              1.006
 Vibration    17          0.787              1.415              0.874
 Vibration    18          0.831              1.306              0.725
 Vibration    19          0.885              1.184              0.588
 Vibration    20          0.895              1.162              0.565
 Vibration    21          0.949              1.050              0.465

 Optimization completed.
    -- Stationary point found.
 Normal termination of Gaussian 09 at Thu Feb  2 15:56:39 2023.
