 Gaussian 09, Revision D.01,
 Gaussian 09:  ES64L-G09RevD.01 24-Apr-2013

 ----------------------------------------------------------------------
 # opt freq b3lyp/6-311+g(d,p) geom=connectivity pop=(hirshfeld,chelpg,
 mbs,npa)
 ----------------------------------------------------------------------

 -------------------
 Title Card Required
 -------------------
 Symbolic Z-matrix:
 Charge =  0 Multiplicity = 1

 SCF Done:  E(RB3LYP) =  -553.690226999     A.U. after   15 cycles
 SCF Done:  E(RB3LYP) =  -553.711521078     A.U. after   13 cycles
 SCF Done:  E(RB3LYP) =  -553.714152148     A.U. after   13 cycles
 SCF Done:  E(RB3LYP) =  -553.714386344     A.U. after   11 cycles
 SCF Done:  E(RB3LYP) =  -553.714589817     A.U. after   12 cycles
 SCF Done:  E(RB3LYP) =  -553.714732305     A.U. after   11 cycles
 SCF Done:  E(RB3LYP) =  -553.714776933     A.U. after   12 cycles
 SCF Done:  E(RB3LYP) =  -553.714783066     A.U. after   10 cycles
 SCF Done:  E(RB3LYP) =  -553.714787231     A.U. after   11 cycles
 SCF Done:  E(RB3LYP) =  -553.714798142     A.U. after   12 cycles
 SCF Done:  E(RB3LYP) =  -553.717096169     A.U. after   12 cycles
 SCF Done:  E(RB3LYP) =  -553.718497653     A.U. after   14 cycles
 SCF Done:  E(RB3LYP) =  -553.719031756     A.U. after   12 cycles
 SCF Done:  E(RB3LYP) =  -553.719134448     A.U. after   11 cycles
 SCF Done:  E(RB3LYP) =  -553.719147479     A.U. after   11 cycles
 SCF Done:  E(RB3LYP) =  -553.719166036     A.U. after   11 cycles
 SCF Done:  E(RB3LYP) =  -553.719169912     A.U. after   10 cycles
 SCF Done:  E(RB3LYP) =  -553.719170556     A.U. after    8 cycles
 SCF Done:  E(RB3LYP) =  -553.719170624     A.U. after    8 cycles
 Optimization completed.
    -- Stationary point found.
 Normal termination of Gaussian 09 at Mon Nov  1 17:02:45 2021.

 ----------------------------------------------------------------------
 #N Geom=AllCheck Guess=TCheck SCRF=Check GenChk RB3LYP/6-311+G(d,p) Fr
 eq
 ----------------------------------------------------------------------

 Structure from the checkpoint file:  "Chart1_4.chk"
 -------------------
 Title Card Required
 -------------------
 Charge =  0 Multiplicity = 1

                         Standard orientation:
 ---------------------------------------------------------------------
 Center     Atomic      Atomic             Coordinates (Angstroms)
 Number     Number       Type             X           Y           Z
 ---------------------------------------------------------------------
      1          6           0        0.930591   -0.819327    0.000007
      2          6           0       -0.423860   -0.473481    0.000059
      3          6           0       -0.818395    0.862098    0.000030
      4          6           0        0.079553    1.917760   -0.000067
      5          6           0        1.426736    1.577469    0.000040
      6          6           0        1.849736    0.230547    0.000036
      7          1           0       -0.243425    2.950953   -0.000108
      8          1           0        2.189857    2.345594    0.000105
      9          6           0       -2.554443   -0.440149   -0.000011
     10          8           0       -2.194663    0.887059   -0.000015
     11          7           0       -1.567539   -1.275205    0.000036
     12          6           0       -4.008989   -0.735495   -0.000022
     13          1           0       -4.490326   -0.305915    0.882844
     14          1           0       -4.490392   -0.305598   -0.882713
     15          1           0       -4.153838   -1.814311   -0.000233
     16          1           0        1.226215   -1.858656   -0.000031
     17          8           0        3.206800    0.059646    0.000005
     18          6           0        3.721451   -1.264046   -0.000045
     19          1           0        4.805465   -1.162043   -0.000037
     20          1           0        3.408900   -1.814787    0.894092
     21          1           0        3.408945   -1.814703   -0.894254
 ---------------------------------------------------------------------

 SCF Done:  E(RB3LYP) =  -553.719170624     A.U. after    1 cycles

 The electronic state is 1-A.
 Alpha  occ. eigenvalues --  -19.19849 -19.15768 -14.31515 -10.27613 -10.24187
 Alpha  occ. eigenvalues --  -10.23149 -10.22868 -10.20964 -10.19145 -10.19058
 Alpha  occ. eigenvalues --  -10.18155 -10.18059  -1.13369  -1.07304  -0.93366
 Alpha  occ. eigenvalues --   -0.86399  -0.78941  -0.76211  -0.74163  -0.69543
 Alpha  occ. eigenvalues --   -0.62724  -0.61980  -0.59778  -0.54260  -0.52452
 Alpha  occ. eigenvalues --   -0.50533  -0.49165  -0.47530  -0.46508  -0.45510
 Alpha  occ. eigenvalues --   -0.43488  -0.42606  -0.41670  -0.41472  -0.40527
 Alpha  occ. eigenvalues --   -0.38020  -0.37149  -0.34366  -0.33897  -0.31799
 Alpha  occ. eigenvalues --   -0.29747  -0.24843  -0.22431
 Alpha virt. eigenvalues --   -0.03566   0.00199   0.00251   0.00731   0.01825
 Alpha virt. eigenvalues --    0.02531   0.03060   0.03428   0.04149   0.04417
 Alpha virt. eigenvalues --    0.05280   0.05348   0.06327   0.07104   0.07550

 Mulliken charges:
               1
     1  C   -0.043573
     2  C    0.201822
     3  C    0.561672
     4  C   -0.921316
     5  C   -0.047379
     6  C   -0.518892
     7  H    0.130595
     8  H    0.132666
     9  C    0.244087
    10  O   -0.092230
    11  N   -0.098259
    12  C   -0.199771
    13  H    0.163459
    14  H    0.163452
    15  H    0.173538
    16  H    0.125865
    17  O   -0.189619
    18  C   -0.238060
    19  H    0.159441
    20  H    0.146250
    21  H    0.146253
 Sum of Mulliken charges =   0.00000

 Dipole moment (field-independent basis, Debye):
    X=             -0.3157    Y=             -0.2119    Z=             -0.0001  Tot=              0.3803
 Quadrupole moment (field-independent basis, Debye-Ang):
   XX=            -57.7377   YY=            -68.3555   ZZ=            -72.1869
   XY=             -4.8138   XZ=              0.0000   YZ=              0.0003

  Exact polarizability: 172.978   3.227 117.797   0.000   0.000  70.090
 Approx polarizability: 243.363   4.590 198.189   0.001  -0.001 107.111

 ESP charges:
               1
     1  C   -0.451417
     2  C    0.427681
     3  C    0.098924
     4  C   -0.109031
     5  C   -0.330847
     6  C    0.427459
     7  H    0.147528
     8  H    0.152742
     9  C    0.691814
    10  O   -0.371134
    11  N   -0.698209
    12  C   -0.311046
    13  H    0.093002
    14  H    0.092991
    15  H    0.100054
    16  H    0.210378
    17  O   -0.402253
    18  C    0.195197
    19  H    0.039490
    20  H   -0.001658
    21  H   -0.001663
 Sum of ESP charges =   0.00000

 Summary of Natural Population Analysis:

                                       Natural Population
                Natural  -----------------------------------------------
    Atom  No    Charge         Core      Valence    Rydberg      Total
 -----------------------------------------------------------------------
      C    1   -0.29019      1.99898     4.27625    0.01496     6.29019
      C    2    0.09963      1.99890     3.87600    0.02548     5.90037
      C    3    0.24796      1.99864     3.73036    0.02304     5.75204
      C    4   -0.22423      1.99907     4.20940    0.01576     6.22423
      C    5   -0.23336      1.99911     4.21705    0.01720     6.23336
      C    6    0.31716      1.99883     3.66116    0.02285     5.68284
      H    7    0.22294      0.00000     0.77536    0.00170     0.77706
      H    8    0.22209      0.00000     0.77616    0.00175     0.77791
      C    9    0.55971      1.99925     3.40492    0.03613     5.44029
      O   10   -0.48765      1.99971     6.47226    0.01569     8.48765
      N   11   -0.49566      1.99932     5.47797    0.01837     7.49566
      C   12   -0.63007      1.99926     4.62203    0.00878     6.63007
      H   13    0.22628      0.00000     0.77224    0.00147     0.77372
      H   14    0.22628      0.00000     0.77225    0.00147     0.77372
      H   15    0.23434      0.00000     0.76429    0.00137     0.76566
      H   16    0.22529      0.00000     0.77223    0.00248     0.77471
      O   17   -0.54509      1.99971     6.52728    0.01810     8.54509
      C   18   -0.20786      1.99926     4.19279    0.01581     6.20786
      H   19    0.19194      0.00000     0.80699    0.00108     0.80806
      H   20    0.17024      0.00000     0.82738    0.00238     0.82976
      H   21    0.17024      0.00000     0.82738    0.00238     0.82976
 =======================================================================
   * Total *    0.00000     23.99004    61.76172    0.24823    86.00000

                      1                      2                      3
                      A                      A                      A
 Frequencies --     74.3956                97.5629               115.2560
 Red. masses --      2.7109                 1.2709                 2.7616
 Frc consts  --      0.0088                 0.0071                 0.0216
 IR Inten    --      6.1325                 0.2454                 0.0090

                      4                      5                      6
                      A                      A                      A
 Frequencies --    186.5775               196.4969               243.8048
 Red. masses --      3.2953                 3.0690                 1.3714
 Frc consts  --      0.0676                 0.0698                 0.0480
 IR Inten    --      2.6130                 2.5290                 0.1128

                      7                      8                      9
                      A                      A                      A
 Frequencies --    279.8202               293.3698               382.3847
 Red. masses --      3.1301                 3.8601                 6.1702
 Frc consts  --      0.1444                 0.1957                 0.5316
 IR Inten    --      5.7826                 1.2991                 0.7066

                     10                     11                     12
                      A                      A                      A
 Frequencies --    412.6436               438.0502               462.2987
 Red. masses --      5.3641                 2.9327                 4.8276
 Frc consts  --      0.5381                 0.3316                 0.6079
 IR Inten    --      1.0367                 3.8649                 0.7704

                     13                     14                     15
                      A                      A                      A
 Frequencies --    537.0834               593.8971               625.5818
 Red. masses --      4.0739                 5.4690                 3.0982
 Frc consts  --      0.6924                 1.1365                 0.7144
 IR Inten    --      1.4381                 3.6969                 5.5988

                     16                     17                     18
                      A                      A                      A
 Frequencies --    672.5718               693.5628               747.9243
 Red. masses --      4.8463                 5.5775                 4.6661
 Frc consts  --      1.2916                 1.5808                 1.5379
 IR Inten    --      4.1191                 0.0421                 0.1091

                     19                     20                     21
                      A                      A                      A
 Frequencies --    782.3061               819.4600               851.2735
 Red. masses --      6.2133                 1.5364                 1.5546
 Frc consts  --      2.2404                 0.6079                 0.6638
 IR Inten    --      9.7783                31.1976                32.6051

                     22                     23                     24
                      A                      A                      A
 Frequencies --    859.3768               941.3445               946.4899
 Red. masses --      6.1988                 4.3292                 1.2959
 Frc consts  --      2.6973                 2.2602                 0.6840
 IR Inten    --     32.7706                44.0708                 0.3005

                     25                     26                     27
                      A                      A                      A
 Frequencies --    958.6420              1038.1295              1051.1897
 Red. masses --      3.4361                 1.9924                 4.4454
 Frc consts  --      1.8605                 1.2651                 2.8942
 IR Inten    --     15.5264                 0.2516                37.0365

                     28                     29                     30
                      A                      A                      A
 Frequencies --   1062.8905              1126.1103              1169.1726
 Red. masses --      1.5466                 1.5243                 1.2745
 Frc consts  --      1.0295                 1.1389                 1.0264
 IR Inten    --      2.5948                 3.9961                 0.7635

                     31                     32                     33
                      A                      A                      A
 Frequencies --   1173.1339              1186.7733              1215.9456
 Red. masses --      2.1019                 2.9713                 1.7529
 Frc consts  --      1.7043                 2.4656                 1.5270
 IR Inten    --    113.2729                78.0843                83.2743

                     34                     35                     36
                      A                      A                      A
 Frequencies --   1282.1324              1289.4972              1307.6236
 Red. masses --      1.5128                 4.7151                 6.7671
 Frc consts  --      1.4652                 4.6194                 6.8173
 IR Inten    --     10.2164                41.2877                78.3543

                     37                     38                     39
                      A                      A                      A
 Frequencies --   1372.0076              1414.1788              1464.8831
 Red. masses --      5.6688                 1.3663                 1.8439
 Frc consts  --      6.2871                 1.6099                 2.3313
 IR Inten    --     13.7469                 6.0637                 1.5516

                     40                     41                     42
                      A                      A                      A
 Frequencies --   1471.0781              1474.6072              1479.4711
 Red. masses --      1.8391                 1.0424                 1.1492
 Frc consts  --      2.3449                 1.3355                 1.4820
 IR Inten    --    104.8017                 9.5525                 4.5758

                     43                     44                     45
                      A                      A                      A
 Frequencies --   1492.0408              1506.8058              1510.6548
 Red. masses --      1.0455                 1.0797                 2.4989
 Frc consts  --      1.3714                 1.4444                 3.3599
 IR Inten    --      9.4293                25.9524               111.6354

                     46                     47                     48
                      A                      A                      A
 Frequencies --   1619.7144              1645.1359              1658.9258
 Red. masses --      8.1708                 8.6257                 7.4010
 Frc consts  --     12.6297                13.7546                12.0003
 IR Inten    --    167.6946                 6.1459                 9.0031

                     49                     50                     51
                      A                      A                      A
 Frequencies --   3002.6763              3039.6806              3060.3868
 Red. masses --      1.0346                 1.0381                 1.1060
 Frc consts  --      5.4959                 5.6514                 6.1034
 IR Inten    --     50.9127                15.3950                38.3855

                     52                     53                     54
                      A                      A                      A
 Frequencies --   3090.7942              3133.3368              3148.3439
 Red. masses --      1.1004                 1.0989                 1.0998
 Frc consts  --      6.1933                 6.3568                 6.4231
 IR Inten    --      7.5215                23.3247                 3.1231

                     55                     56                     57
                      A                      A                      A
 Frequencies --   3192.3315              3206.1321              3220.3610
 Red. masses --      1.0882                 1.0956                 1.0909
 Frc consts  --      6.5341                 6.6355                 6.6655
 IR Inten    --      1.3980                 3.2097                 2.7221

 - Thermochemistry -
 -------------------
 Temperature   298.150 Kelvin.  Pressure   1.00000 Atm.
 Atom     1 has atomic number  6 and mass  12.00000

 Molecular mass:   163.06333 amu.
 Principal axes and moments of inertia in atomic units:
                           1         2         3
     Eigenvalues --   678.725293263.167793919.16398
           X            0.99997  -0.00766   0.00000
           Y            0.00766   0.99997   0.00000
           Z            0.00000   0.00000   1.00000
 This molecule is an asymmetric top.
 Rotational symmetry number  1.
 Warning -- assumption of classical behavior for rotation
           may cause significant error
 Rotational temperatures (Kelvin)      0.12761     0.02654     0.02210
 Rotational constants (GHZ):           2.65902     0.55306     0.46049
 Zero-point vibrational energy     432559.6 (Joules/Mol)
                                  103.38423 (Kcal/Mol)
 Warning -- explicit consideration of  14 degrees of freedom as
           vibrations may cause significant error
 Vibrational temperatures:    107.04   140.37   165.83   268.44   282.71
          (Kelvin)            350.78   402.60   422.09   550.17   593.70
                              630.26   665.14   772.74   854.48   900.07
                              967.68   997.88  1076.09  1125.56  1179.02
                             1224.79  1236.45  1354.38  1361.79  1379.27
                             1493.63  1512.43  1529.26  1620.22  1682.18
                             1687.88  1707.50  1749.47  1844.70  1855.30
                             1881.38  1974.01  2034.69  2107.64  2116.55
                             2121.63  2128.63  2146.71  2167.95  2173.49
                             2330.40  2366.98  2386.82  4320.18  4373.42
                             4403.21  4446.96  4508.17  4529.76  4593.05
                             4612.90  4633.38

 Zero-point correction=                           0.164753 (Hartree/Particle)
 Thermal correction to Energy=                    0.175026
 Thermal correction to Enthalpy=                  0.175970
 Thermal correction to Gibbs Free Energy=         0.128794
 Sum of electronic and zero-point Energies=           -553.554417
 Sum of electronic and thermal Energies=              -553.544145
 Sum of electronic and thermal Enthalpies=            -553.543201
 Sum of electronic and thermal Free Energies=         -553.590377

                     E (Thermal)             CV                S
                      KCal/Mol        Cal/Mol-Kelvin    Cal/Mol-Kelvin
 Total                  109.830             39.205             99.291
 Electronic               0.000              0.000              0.000
 Translational            0.889              2.981             41.176
 Rotational               0.889              2.981             30.541
 Vibrational            108.053             33.243             27.574
 Vibration     1          0.599              1.966              4.034
 Vibration     2          0.603              1.951              3.502
 Vibration     3          0.608              1.937              3.178
 Vibration     4          0.632              1.858              2.262
 Vibration     5          0.636              1.845              2.166
 Vibration     6          0.659              1.773              1.775
 Vibration     7          0.680              1.711              1.535
 Vibration     8          0.688              1.686              1.454
 Vibration     9          0.752              1.508              1.030
 Vibration    10          0.776              1.443              0.917
 Vibration    11          0.798              1.387              0.833
 Vibration    12          0.820              1.334              0.759
 Vibration    13          0.892              1.168              0.572
 Vibration    14          0.952              1.045              0.460

 Optimization completed.
    -- Stationary point found.
 Normal termination of Gaussian 09 at Mon Nov  1 17:06:12 2021.
