 Gaussian 09, Revision D.01,
 Gaussian 09:  ES64L-G09RevD.01 24-Apr-2013

 ----------------------------------------------------------------------
 # opt freq=noraman b3lyp/6-311+g(d,p) pop=(npa,hirshfeld,chelpg,mbs) g
 eom=connectivity
 ----------------------------------------------------------------------

 -------------------
 Title Card Required
 -------------------
 Symbolic Z-matrix:
 Charge =  0 Multiplicity = 1

 SCF Done:  E(RB3LYP) =  -536.612077236     A.U. after   14 cycles
 SCF Done:  E(RB3LYP) =  -536.648230572     A.U. after   13 cycles
 SCF Done:  E(RB3LYP) =  -536.660040190     A.U. after   14 cycles
 SCF Done:  E(RB3LYP) =  -536.663188898     A.U. after   13 cycles
 SCF Done:  E(RB3LYP) =  -536.663341754     A.U. after   13 cycles
 SCF Done:  E(RB3LYP) =  -536.661742839     A.U. after   13 cycles
 SCF Done:  E(RB3LYP) =  -536.663652500     A.U. after   11 cycles
 SCF Done:  E(RB3LYP) =  -536.664184287     A.U. after   12 cycles
 SCF Done:  E(RB3LYP) =  -536.664245829     A.U. after   12 cycles
 SCF Done:  E(RB3LYP) =  -536.664290914     A.U. after   12 cycles
 SCF Done:  E(RB3LYP) =  -536.664310072     A.U. after   12 cycles
 SCF Done:  E(RB3LYP) =  -536.664341787     A.U. after   13 cycles
 SCF Done:  E(RB3LYP) =  -536.664353527     A.U. after   12 cycles
 SCF Done:  E(RB3LYP) =  -536.664362276     A.U. after   11 cycles
 SCF Done:  E(RB3LYP) =  -536.664367787     A.U. after   11 cycles
 SCF Done:  E(RB3LYP) =  -536.664368842     A.U. after   10 cycles
 SCF Done:  E(RB3LYP) =  -536.664369208     A.U. after   11 cycles
 SCF Done:  E(RB3LYP) =  -536.664369249     A.U. after    9 cycles
 SCF Done:  E(RB3LYP) =  -536.664369264     A.U. after    9 cycles
 Optimization completed.
    -- Stationary point found.
 Normal termination of Gaussian 09 at Thu Feb  2 15:49:23 2023.

 ----------------------------------------------------------------------
 #N Geom=AllCheck Guess=TCheck SCRF=Check GenChk RB3LYP/6-311+G(d,p) Fr
 eq
 ----------------------------------------------------------------------

 Structure from the checkpoint file:  "regiodevergent1r_Ishiyana.chk"
 -------------------
 Title Card Required
 -------------------
 Charge =  0 Multiplicity = 1

                         Standard orientation:
 ---------------------------------------------------------------------
 Center     Atomic      Atomic             Coordinates (Angstroms)
 Number     Number       Type             X           Y           Z
 ---------------------------------------------------------------------
      1          6           0       -1.810084   -0.063218    0.001242
      2          6           0       -1.579780    1.292204    0.007226
      3          6           0       -0.162289    1.418964    0.002758
      4          6           0        0.366949    0.154889   -0.006689
      5          8           0       -0.670658   -0.761526   -0.007109
      6          1           0       -2.313548    2.079897    0.015163
      7          1           0        0.398477    2.340416    0.005406
      8          6           0        1.732553   -0.369529   -0.019833
      9          8           0        1.961162   -1.566161   -0.013698
     10          6           0        2.852479    0.670236   -0.052416
     11          1           0        2.757793    1.236091   -0.987291
     12          1           0        2.682795    1.393526    0.753208
     13          6           0        4.244594    0.053118    0.061147
     14          1           0        5.009747    0.832338    0.019259
     15          1           0        4.357963   -0.490946    1.000920
     16          1           0        4.426941   -0.655662   -0.748177
     17          8           0       -2.903625   -0.817125    0.002674
     18          6           0       -4.147469   -0.110657    0.013141
     19          1           0       -4.242482    0.515266   -0.878854
     20          1           0       -4.921579   -0.874146    0.013204
     21          1           0       -4.232861    0.505664    0.912761
 ---------------------------------------------------------------------

 SCF Done:  E(RB3LYP) =  -536.664369264     A.U. after    1 cycles

 The electronic state is 1-A.
 Alpha  occ. eigenvalues --  -19.20285 -19.19114 -19.10333 -10.30690 -10.25946
 Alpha  occ. eigenvalues --  -10.25080 -10.23306 -10.20005 -10.18874 -10.18068
 Alpha  occ. eigenvalues --  -10.15872  -1.15501  -1.09399  -1.03692  -0.83050
 Alpha  occ. eigenvalues --   -0.79291  -0.77494  -0.73029  -0.65949  -0.63444
 Alpha  occ. eigenvalues --   -0.59475  -0.57220  -0.54347  -0.51410  -0.48607
 Alpha  occ. eigenvalues --   -0.48470  -0.47301  -0.45635  -0.45365  -0.44002
 Alpha  occ. eigenvalues --   -0.42093  -0.40061  -0.38537  -0.37859  -0.37541
 Alpha  occ. eigenvalues --   -0.36518  -0.35631  -0.34491  -0.30528  -0.25405
 Alpha  occ. eigenvalues --   -0.23042
 Alpha virt. eigenvalues --   -0.05654  -0.00878   0.00203   0.01639   0.01983
 Alpha virt. eigenvalues --    0.02977   0.03131   0.03486   0.04659   0.04937
 Alpha virt. eigenvalues --    0.05228   0.06666   0.06879   0.07544   0.07817

 Mulliken charges:
               1
     1  C   -0.000392
     2  C    0.136467
     3  C   -0.647401
     4  C    0.496457
     5  O   -0.139928
     6  H    0.129665
     7  H    0.138364
     8  C    0.040601
     9  O   -0.269287
    10  C   -0.090363
    11  H    0.170552
    12  H    0.154208
    13  C   -0.640601
    14  H    0.132183
    15  H    0.151218
    16  H    0.156432
    17  O   -0.184563
    18  C   -0.207403
    19  H    0.153195
    20  H    0.167098
    21  H    0.153498
 Sum of Mulliken charges =   0.00000

 Dipole moment (field-independent basis, Debye):
    X=             -3.3125    Y=              4.7728    Z=             -0.0115  Tot=              5.8097
 Quadrupole moment (field-independent basis, Debye-Ang):
   XX=            -49.4727   YY=            -69.8154   ZZ=            -65.9261
   XY=              3.1512   XZ=             -0.2046   YZ=             -0.0241

  Exact polarizability: 158.735  -7.898 101.844  -0.225  -0.126  68.613
 Approx polarizability: 194.694 -20.211 178.466  -0.538  -0.002 102.835

 ESP charges:
               1
     1  C    0.589595
     2  C   -0.346680
     3  C   -0.149666
     4  C   -0.026928
     5  O   -0.244682
     6  H    0.157549
     7  H    0.151211
     8  C    0.491217
     9  O   -0.502622
    10  C    0.104675
    11  H   -0.030189
    12  H   -0.035161
    13  C   -0.108606
    14  H    0.026114
    15  H    0.028510
    16  H    0.033123
    17  O   -0.391842
    18  C    0.161572
    19  H    0.008844
    20  H    0.074807
    21  H    0.009161
 Sum of ESP charges =   0.00000

 Summary of Natural Population Analysis:

                                       Natural Population
                Natural  -----------------------------------------------
    Atom  No    Charge         Core      Valence    Rydberg      Total
 -----------------------------------------------------------------------
      C    1    0.66428      1.99883     3.30333    0.03355     5.33572
      C    2   -0.40717      1.99906     4.39236    0.01575     6.40717
      C    3   -0.21761      1.99910     4.20372    0.01480     6.21761
      C    4    0.16594      1.99884     3.80846    0.02676     5.83406
      O    5   -0.44339      1.99968     6.42278    0.02094     8.44339
      H    6    0.22767      0.00000     0.77078    0.00155     0.77233
      H    7    0.22530      0.00000     0.77301    0.00169     0.77470
      C    8    0.50101      1.99923     3.45998    0.03979     5.49899
      O    9   -0.55268      1.99976     6.53956    0.01336     8.55268
      C   10   -0.46582      1.99925     4.45538    0.01119     6.46582
      H   11    0.21487      0.00000     0.78303    0.00209     0.78513
      H   12    0.21035      0.00000     0.78747    0.00219     0.78965
      C   13   -0.57542      1.99938     4.56507    0.01097     6.57542
      H   14    0.19705      0.00000     0.80169    0.00126     0.80295
      H   15    0.20748      0.00000     0.79094    0.00158     0.79252
      H   16    0.21138      0.00000     0.78698    0.00163     0.78862
      O   17   -0.51081      1.99968     6.49405    0.01709     8.51081
      C   18   -0.20574      1.99925     4.19222    0.01427     6.20574
      H   19    0.17743      0.00000     0.82063    0.00194     0.82257
      H   20    0.19841      0.00000     0.80063    0.00097     0.80159
      H   21    0.17748      0.00000     0.82058    0.00194     0.82252
 =======================================================================
   * Total *    0.00000     21.99205    59.77265    0.23530    82.00000

                      1                      2                      3
                      A                      A                      A
 Frequencies --     21.9842                59.0474                82.2995
 Red. masses --      1.9365                 3.2397                 4.0817
 Frc consts  --      0.0006                 0.0067                 0.0163
 IR Inten    --      0.0467                 3.3776                 1.0029

                      4                      5                      6
                      A                      A                      A
 Frequencies --    114.6407               149.2094               193.2203
 Red. masses --      4.0815                 5.3806                 1.0980
 Frc consts  --      0.0316                 0.0706                 0.0242
 IR Inten    --      1.8536                 0.2426                 0.3255

                      7                      8                      9
                      A                      A                      A
 Frequencies --    214.4449               235.8093               281.6104
 Red. masses --      1.1565                 3.4105                 4.9237
 Frc consts  --      0.0313                 0.1117                 0.2301
 IR Inten    --      0.1447                 0.2048                 9.3905

                     10                     11                     12
                      A                      A                      A
 Frequencies --    316.6632               319.8062               484.3342
 Red. masses --      3.9221                 4.9243                 7.0034
 Frc consts  --      0.2317                 0.2967                 0.9679
 IR Inten    --      5.8837                 1.5185                 0.4498

                     13                     14                     15
                      A                      A                      A
 Frequencies --    538.5419               561.7522               646.4443
 Red. masses --      2.7460                 5.2359                 3.2924
 Frc consts  --      0.4692                 0.9735                 0.8106
 IR Inten    --      0.6074                 5.8790                 1.4970

                     16                     17                     18
                      A                      A                      A
 Frequencies --    671.1621               696.2143               713.4556
 Red. masses --      5.1665                 4.6667                 3.6654
 Frc consts  --      1.3712                 1.3327                 1.0993
 IR Inten    --     28.3073                 0.1679                 1.0266

                     19                     20                     21
                      A                      A                      A
 Frequencies --    757.3133               813.3567               870.9446
 Red. masses --      1.3208                 1.4682                 1.3593
 Frc consts  --      0.4463                 0.5723                 0.6075
 IR Inten    --     59.9134                 6.3953                 3.3546

                     22                     23                     24
                      A                      A                      A
 Frequencies --    912.6691               980.4366               989.5289
 Red. masses --      5.4919                 3.8990                 6.3319
 Frc consts  --      2.6953                 2.2082                 3.6529
 IR Inten    --     38.1219                55.8679                17.8567

                     25                     26                     27
                      A                      A                      A
 Frequencies --   1020.0789              1048.1911              1088.5136
 Red. masses --      1.7612                 1.3993                 1.6468
 Frc consts  --      1.0797                 0.9058                 1.1496
 IR Inten    --     48.1835               176.0127                 0.1271

                     28                     29                     30
                      A                      A                      A
 Frequencies --   1095.1506              1111.5483              1175.3345
 Red. masses --      4.7158                 2.6544                 1.2672
 Frc consts  --      3.3323                 1.9323                 1.0313
 IR Inten    --     72.5431                15.2814                 0.7290

                     31                     32                     33
                      A                      A                      A
 Frequencies --   1203.5248              1241.4870              1278.6854
 Red. masses --      1.3458                 1.8714                 3.0368
 Frc consts  --      1.1485                 1.6995                 2.9255
 IR Inten    --      5.6659                 7.4753                41.2760

                     34                     35                     36
                      A                      A                      A
 Frequencies --   1281.2076              1306.9771              1373.7490
 Red. masses --      1.1966                 5.4750                 2.1372
 Frc consts  --      1.1573                 5.5102                 2.3763
 IR Inten    --      0.8101                53.6574                17.2489

                     37                     38                     39
                      A                      A                      A
 Frequencies --   1416.9727              1423.3103              1462.7673
 Red. masses --      1.2338                 4.4706                 1.2748
 Frc consts  --      1.4596                 5.3360                 1.6072
 IR Inten    --      4.5991                72.1909               129.0326

                     40                     41                     42
                      A                      A                      A
 Frequencies --   1464.7694              1492.6394              1492.6590
 Red. masses --      1.1125                 1.0437                 1.0369
 Frc consts  --      1.4064                 1.3701                 1.3611
 IR Inten    --      9.1953                11.7560                 8.1069

                     43                     44                     45
                      A                      A                      A
 Frequencies --   1501.5770              1502.8140              1562.6979
 Red. masses --      1.0499                 1.0523                 5.3851
 Frc consts  --      1.3947                 1.4002                 7.7481
 IR Inten    --     18.8792                12.3790               595.0701

                     46                     47                     48
                      A                      A                      A
 Frequencies --   1618.1038              1730.4899              3017.5772
 Red. masses --      5.8312                11.2367                 1.0608
 Frc consts  --      8.9954                19.8256                 5.6912
 IR Inten    --    168.0807               295.9985                24.2112

                     49                     50                     51
                      A                      A                      A
 Frequencies --   3022.3622              3041.0085              3046.7078
 Red. masses --      1.0335                 1.0372                 1.0981
 Frc consts  --      5.5625                 5.6514                 6.0056
 IR Inten    --     52.6363                30.9380                 9.0786

                     52                     53                     54
                      A                      A                      A
 Frequencies --   3087.3348              3104.0212              3115.3419
 Red. masses --      1.1072                 1.1014                 1.1021
 Frc consts  --      6.2178                 6.2523                 6.3023
 IR Inten    --     27.8137                23.3961                22.4802

                     55                     56                     57
                      A                      A                      A
 Frequencies --   3155.8788              3246.0274              3268.9411
 Red. masses --      1.1011                 1.0950                 1.0994
 Frc consts  --      6.4610                 6.7978                 6.9217
 IR Inten    --     11.3094                 3.5369                 2.4902

 - Thermochemistry -
 -------------------
 Temperature   298.150 Kelvin.  Pressure   1.00000 Atm.
 Atom     1 has atomic number  6 and mass  12.00000

 Molecular mass:   154.06299 amu.
 Principal axes and moments of inertia in atomic units:
                           1         2         3
     Eigenvalues --   469.625073503.409043938.49144
           X            1.00000   0.00297   0.00022
           Y           -0.00297   1.00000  -0.00089
           Z           -0.00022   0.00089   1.00000
 This molecule is an asymmetric top.
 Rotational symmetry number  1.
 Warning -- assumption of classical behavior for rotation
           may cause significant error
 Rotational temperatures (Kelvin)      0.18443     0.02472     0.02199
 Rotational constants (GHZ):           3.84294     0.51514     0.45823
 Zero-point vibrational energy     440365.4 (Joules/Mol)
                                  105.24985 (Kcal/Mol)
 Warning -- explicit consideration of  14 degrees of freedom as
           vibrations may cause significant error
 Vibrational temperatures:     31.63    84.96   118.41   164.94   214.68
          (Kelvin)            278.00   308.54   339.28   405.17   455.61
                              460.13   696.85   774.84   808.24   930.09
                              965.65  1001.70  1026.50  1089.60  1170.24
                             1253.09  1313.13  1410.63  1423.71  1467.66
                             1508.11  1566.13  1575.68  1599.27  1691.04
                             1731.60  1786.22  1839.74  1843.37  1880.45
                             1976.52  2038.71  2047.82  2104.59  2107.47
                             2147.57  2147.60  2160.43  2162.21  2248.37
                             2328.09  2489.79  4341.62  4348.50  4375.33
                             4383.53  4441.98  4465.99  4482.28  4540.60
                             4670.30  4703.27

 Zero-point correction=                           0.167726 (Hartree/Particle)
 Thermal correction to Energy=                    0.178987
 Thermal correction to Enthalpy=                  0.179931
 Thermal correction to Gibbs Free Energy=         0.129167
 Sum of electronic and zero-point Energies=           -536.496643
 Sum of electronic and thermal Energies=              -536.485382
 Sum of electronic and thermal Enthalpies=            -536.484438
 Sum of electronic and thermal Free Energies=         -536.535202

                     E (Thermal)             CV                S
                      KCal/Mol        Cal/Mol-Kelvin    Cal/Mol-Kelvin
 Total                  112.316             39.872            106.841
 Electronic               0.000              0.000              0.000
 Translational            0.889              2.981             41.006
 Rotational               0.889              2.981             30.250
 Vibrational            110.538             33.910             35.585
 Vibration     1          0.593              1.985              6.446
 Vibration     2          0.596              1.974              4.489
 Vibration     3          0.600              1.961              3.835
 Vibration     4          0.608              1.937              3.189
 Vibration     5          0.618              1.904              2.682
 Vibration     6          0.635              1.849              2.197
 Vibration     7          0.644              1.819              2.006
 Vibration     8          0.655              1.786              1.834
 Vibration     9          0.681              1.708              1.524
 Vibration    10          0.704              1.642              1.327
 Vibration    11          0.706              1.636              1.311
 Vibration    12          0.840              1.285              0.698
 Vibration    13          0.894              1.165              0.568
 Vibration    14          0.917              1.114              0.520

 Optimization completed.
    -- Stationary point found.
 Normal termination of Gaussian 09 at Thu Feb  2 15:51:59 2023.
