 Gaussian 09, Revision D.01,
 Gaussian 09:  ES64L-G09RevD.01 24-Apr-2013

 ---------------------------------------------------------------------
 # b3lyp/6-311+g(d,p) geom=connectivity pop=(hirshfeld,chelpg,mbs,npa)
 ---------------------------------------------------------------------

 --------
 Table6_4
 --------
 Symbolic Z-matrix:
 Charge =  0 Multiplicity = 1

                         Standard orientation:
 ---------------------------------------------------------------------
 Center     Atomic      Atomic             Coordinates (Angstroms)
 Number     Number       Type             X           Y           Z
 ---------------------------------------------------------------------
      1          6           0        0.639940    0.106482   -0.000333
      2          6           0       -0.219160    1.162714   -0.000114
      3          6           0       -1.547190    0.616372    0.000009
      4          6           0       -1.399364   -0.732035    0.000119
      5          8           0       -0.073639   -1.062020    0.000037
      6          1           0        0.057453    2.205350   -0.000258
      7          1           0       -2.479594    1.158369    0.001028
      8          1           0       -2.089991   -1.557988   -0.000781
      9          6           0        2.121434   -0.015793    0.000124
     10          1           0        2.475623   -0.555105    0.884167
     11          1           0        2.476211   -0.557063   -0.882464
     12          1           0        2.575447    0.976163   -0.000816
 ---------------------------------------------------------------------

 SCF Done:  E(RB3LYP) =  -269.420665980     A.U. after   12 cycles

 The electronic state is 1-A.
 Alpha  occ. eigenvalues --  -19.18583 -10.22791 -10.21860 -10.17981 -10.17130
 Alpha  occ. eigenvalues --  -10.16834  -1.11059  -0.80222  -0.78279  -0.69181
 Alpha  occ. eigenvalues --   -0.60308  -0.55533  -0.52631  -0.46405  -0.44672
 Alpha  occ. eigenvalues --   -0.41047  -0.40913  -0.40782  -0.39107  -0.37064
 Alpha  occ. eigenvalues --   -0.28299  -0.22668
 Alpha virt. eigenvalues --    0.00145   0.00484   0.01879   0.03057   0.03982
 Alpha virt. eigenvalues --    0.04539   0.05244   0.06270   0.06737   0.08229
 Alpha virt. eigenvalues --    0.08426   0.08494   0.09490   0.11347   0.13137

 Mulliken charges:
               1
     1  C    0.046829
     2  C    0.016660
     3  C   -0.166732
     4  C   -0.074671
     5  O   -0.053414
     6  H    0.117993
     7  H    0.127503
     8  H    0.132817
     9  C   -0.607066
    10  H    0.155567
    11  H    0.155528
    12  H    0.148986
 Sum of Mulliken charges =   0.00000

 Dipole moment (field-independent basis, Debye):
    X=              0.3094    Y=              0.6312    Z=              0.0002  Tot=              0.7029
 Quadrupole moment (field-independent basis, Debye-Ang):
   XX=            -30.8481   YY=            -34.6687   ZZ=            -38.5906
   XY=              1.0958   XZ=             -0.0003   YZ=              0.0028

 ESP charges:
               1
     1  C    0.310040
     2  C   -0.260346
     3  C   -0.114327
     4  C   -0.077530
     5  O   -0.201678
     6  H    0.134284
     7  H    0.110302
     8  H    0.137741
     9  C   -0.379821
    10  H    0.114597
    11  H    0.114470
    12  H    0.112269
 Sum of ESP charges =   0.00000

 Summary of Natural Population Analysis:

                                       Natural Population
                Natural  -----------------------------------------------
    Atom  No    Charge         Core      Valence    Rydberg      Total
 -----------------------------------------------------------------------
      C    1    0.30325      1.99899     3.67248    0.02527     5.69675
      C    2   -0.31086      1.99901     4.29601    0.01584     6.31086
      C    3   -0.30161      1.99917     4.28603    0.01641     6.30161
      C    4    0.10875      1.99906     3.86594    0.02625     5.89125
      O    5   -0.47617      1.99972     6.45977    0.01668     8.47617
      H    6    0.22052      0.00000     0.77813    0.00135     0.77948
      H    7    0.22123      0.00000     0.77733    0.00144     0.77877
      H    8    0.19711      0.00000     0.80140    0.00149     0.80289
      C    9   -0.61462      1.99929     4.60633    0.00900     6.61462
      H   10    0.21737      0.00000     0.78088    0.00175     0.78263
      H   11    0.21737      0.00000     0.78088    0.00175     0.78263
      H   12    0.21765      0.00000     0.78129    0.00106     0.78235
 =======================================================================
   * Total *    0.00000     11.99524    31.88648    0.11828    44.00000

 Normal termination of Gaussian 09 at Fri Jul 23 17:36:06 2021.
