 Gaussian 09, Revision D.01,
 Gaussian 09:  ES64L-G09RevD.01 24-Apr-2013

 ----------------------------------------------------------------------
 # opt freq=noraman b3lyp/6-311+g(d,p) pop=(npa,hirshfeld,chelpg,mbs) g
 eom=connectivity
 ----------------------------------------------------------------------

 -------------------
 Title Card Required
 -------------------
 Symbolic Z-matrix:
 Charge =  0 Multiplicity = 1

 SCF Done:  E(RB3LYP) =  -516.777663727     A.U. after   14 cycles
 SCF Done:  E(RB3LYP) =  -516.790794022     A.U. after   13 cycles
 SCF Done:  E(RB3LYP) =  -516.792027795     A.U. after   12 cycles
 SCF Done:  E(RB3LYP) =  -516.792104343     A.U. after   12 cycles
 SCF Done:  E(RB3LYP) =  -516.788265066     A.U. after   15 cycles
 SCF Done:  E(RB3LYP) =  -516.792239530     A.U. after   10 cycles
 SCF Done:  E(RB3LYP) =  -516.792335029     A.U. after   12 cycles
 SCF Done:  E(RB3LYP) =  -516.792389207     A.U. after   12 cycles
 SCF Done:  E(RB3LYP) =  -516.794382343     A.U. after   15 cycles
 SCF Done:  E(RB3LYP) =  -516.799360486     A.U. after   16 cycles
 SCF Done:  E(RB3LYP) =  -516.807774475     A.U. after   12 cycles
 SCF Done:  E(RB3LYP) =  -516.807823035     A.U. after   12 cycles
 SCF Done:  E(RB3LYP) =  -516.807842865     A.U. after   12 cycles
 SCF Done:  E(RB3LYP) =  -516.807850012     A.U. after   11 cycles
 SCF Done:  E(RB3LYP) =  -516.807851827     A.U. after   11 cycles
 SCF Done:  E(RB3LYP) =  -516.807852559     A.U. after    9 cycles
 SCF Done:  E(RB3LYP) =  -516.807853124     A.U. after    9 cycles
 SCF Done:  E(RB3LYP) =  -516.807853426     A.U. after    9 cycles
 SCF Done:  E(RB3LYP) =  -516.807853540     A.U. after    9 cycles
 Optimization completed.
    -- Stationary point found.
 Normal termination of Gaussian 09 at Thu Feb  2 15:39:17 2023.

 ----------------------------------------------------------------------
 #N Geom=AllCheck Guess=TCheck SCRF=Check GenChk RB3LYP/6-311+G(d,p) Fr
 eq
 ----------------------------------------------------------------------

 Structure from the checkpoint file:  "regiodevergent1d_Ishiyana.chk"
 -------------------
 Title Card Required
 -------------------
 Charge =  0 Multiplicity = 1

                         Standard orientation:
 ---------------------------------------------------------------------
 Center     Atomic      Atomic             Coordinates (Angstroms)
 Number     Number       Type             X           Y           Z
 ---------------------------------------------------------------------
      1          6           0        2.473690    0.018496    0.044095
      2          6           0        2.153804    1.245074   -0.463674
      3          6           0        0.730355    1.280363   -0.567665
      4          6           0        0.273155    0.072269   -0.118505
      5          8           0        1.340677   -0.702267    0.248484
      6          1           0        2.848845    2.024271   -0.734319
      7          1           0        0.130652    2.088564   -0.954273
      8          6           0        3.758143   -0.637054    0.403354
      9          1           0        3.791306   -0.882992    1.469082
     10          1           0        3.892493   -1.568022   -0.155019
     11          1           0        4.592188    0.028018    0.176177
     12          6           0       -1.040591   -0.621834   -0.111007
     13          8           0       -1.095009   -1.829017   -0.309255
     14          7           0       -2.169162    0.146600    0.060732
     15          6           0       -3.466091   -0.491717   -0.127293
     16          1           0       -3.921336   -0.756849    0.834878
     17          1           0       -4.136630    0.194909   -0.652398
     18          1           0       -3.337089   -1.399919   -0.710585
     19          6           0       -2.208498    1.473909    0.659293
     20          1           0       -2.531309    2.232108   -0.064201
     21          1           0       -2.921585    1.476295    1.491089
     22          1           0       -1.232558    1.750642    1.049030
 ---------------------------------------------------------------------

 SCF Done:  E(RB3LYP) =  -516.807853540     A.U. after    1 cycles

 The electronic state is 1-A.
 Alpha  occ. eigenvalues --  -19.19228 -19.08378 -14.34810 -10.27732 -10.23999
 Alpha  occ. eigenvalues --  -10.23305 -10.21253 -10.19941 -10.18632 -10.18435
 Alpha  occ. eigenvalues --  -10.17762  -1.12219  -1.03787  -0.93903  -0.81350
 Alpha  occ. eigenvalues --   -0.79790  -0.73500  -0.72288  -0.68623  -0.61990
 Alpha  occ. eigenvalues --   -0.58352  -0.55977  -0.53140  -0.48651  -0.47682
 Alpha  occ. eigenvalues --   -0.47491  -0.46631  -0.44076  -0.41996  -0.41578
 Alpha  occ. eigenvalues --   -0.41333  -0.41016  -0.40795  -0.39776  -0.38864
 Alpha  occ. eigenvalues --   -0.37714  -0.37501  -0.29286  -0.26468  -0.24686
 Alpha  occ. eigenvalues --   -0.23300
 Alpha virt. eigenvalues --   -0.03610  -0.00470   0.00550   0.01835   0.02367
 Alpha virt. eigenvalues --    0.02781   0.03310   0.03823   0.04648   0.05212
 Alpha virt. eigenvalues --    0.05605   0.06054   0.06942   0.07251   0.07372

 Mulliken charges:
               1
     1  C    0.218780
     2  C   -0.394161
     3  C   -0.159262
     4  C   -0.234201
     5  O   -0.004475
     6  H    0.123108
     7  H    0.131636
     8  C   -0.253724
     9  H    0.159389
    10  H    0.163290
    11  H    0.151205
    12  C    0.232804
    13  O   -0.334321
    14  N   -0.077533
    15  C   -0.267540
    16  H    0.148750
    17  H    0.138327
    18  H    0.177904
    19  C   -0.369441
    20  H    0.150830
    21  H    0.140133
    22  H    0.158500
 Sum of Mulliken charges =   0.00000

 Dipole moment (field-independent basis, Debye):
    X=              0.2577    Y=              4.0632    Z=              0.6685  Tot=              4.1259
 Quadrupole moment (field-independent basis, Debye-Ang):
   XX=            -50.4493   YY=            -70.2964   ZZ=            -66.6501
   XY=             -3.9072   XZ=             -0.6252   YZ=             -1.6990

  Exact polarizability: 151.984  -1.835 108.738  -0.902  -3.773  75.989
 Approx polarizability: 188.527  -1.276 180.493  -1.320 -10.355 114.984

 ESP charges:
               1
     1  C    0.324244
     2  C   -0.282188
     3  C   -0.107733
     4  C    0.034793
     5  O   -0.210591
     6  H    0.141083
     7  H    0.109294
     8  C   -0.348481
     9  H    0.112121
    10  H    0.118849
    11  H    0.101638
    12  C    0.534081
    13  O   -0.556656
    14  N   -0.184118
    15  C   -0.093214
    16  H    0.072353
    17  H    0.047743
    18  H    0.091576
    19  C   -0.053520
    20  H    0.052748
    21  H    0.062890
    22  H    0.033086
 Sum of ESP charges =   0.00000

 Summary of Natural Population Analysis:

                                       Natural Population
                Natural  -----------------------------------------------
    Atom  No    Charge         Core      Valence    Rydberg      Total
 -----------------------------------------------------------------------
      C    1    0.33046      1.99900     3.64545    0.02508     5.66954
      C    2   -0.31234      1.99902     4.29745    0.01587     6.31234
      C    3   -0.26204      1.99907     4.24825    0.01472     6.26204
      C    4    0.20034      1.99886     3.77396    0.02684     5.79966
      O    5   -0.44788      1.99969     6.43093    0.01726     8.44788
      H    6    0.22291      0.00000     0.77567    0.00142     0.77709
      H    7    0.22320      0.00000     0.77534    0.00147     0.77680
      C    8   -0.61697      1.99929     4.60869    0.00899     6.61697
      H    9    0.22144      0.00000     0.77681    0.00176     0.77856
      H   10    0.22452      0.00000     0.77378    0.00170     0.77548
      H   11    0.21764      0.00000     0.78128    0.00109     0.78236
      C   12    0.63253      1.99919     3.32663    0.04165     5.36747
      O   13   -0.61481      1.99976     6.60353    0.01152     8.61481
      N   14   -0.49653      1.99933     5.48236    0.01485     7.49653
      C   15   -0.36056      1.99934     4.34755    0.01366     6.36056
      H   16    0.18649      0.00000     0.81150    0.00201     0.81351
      H   17    0.18647      0.00000     0.81189    0.00164     0.81353
      H   18    0.23259      0.00000     0.76561    0.00180     0.76741
      C   19   -0.35744      1.99934     4.34579    0.01232     6.35744
      H   20    0.18474      0.00000     0.81341    0.00185     0.81526
      H   21    0.19077      0.00000     0.80727    0.00195     0.80923
      H   22    0.21448      0.00000     0.78389    0.00163     0.78552
 =======================================================================
   * Total *    0.00000     21.99189    59.78704    0.22107    82.00000

                      1                      2                      3
                      A                      A                      A
 Frequencies --     46.1564                77.2990                99.5253
 Red. masses --      2.9175                 2.8477                 1.7557
 Frc consts  --      0.0037                 0.0100                 0.0102
 IR Inten    --      1.7602                 2.5776                 0.7103

                      4                      5                      6
                      A                      A                      A
 Frequencies --    116.5230               132.7158               159.9663
 Red. masses --      1.6513                 1.4897                 1.4993
 Frc consts  --      0.0132                 0.0155                 0.0226
 IR Inten    --      1.8250                 2.0338                 1.6413

                      7                      8                      9
                      A                      A                      A
 Frequencies --    198.1803               227.7557               259.5813
 Red. masses --      2.2753                 2.9282                 2.3307
 Frc consts  --      0.0527                 0.0895                 0.0925
 IR Inten    --      1.1467                 1.7276                 4.5330

                     10                     11                     12
                      A                      A                      A
 Frequencies --    302.0487               357.6750               378.0288
 Red. masses --      3.5744                 3.2806                 3.1532
 Frc consts  --      0.1921                 0.2473                 0.2655
 IR Inten    --      1.2528                 5.7890                 0.6818

                     13                     14                     15
                      A                      A                      A
 Frequencies --    416.8089               510.1562               631.6409
 Red. masses --      3.7235                 4.3668                 3.6791
 Frc consts  --      0.3811                 0.6696                 0.8648
 IR Inten    --      5.0795                 8.7749                 0.5357

                     16                     17                     18
                      A                      A                      A
 Frequencies --    644.2722               669.7956               689.6006
 Red. masses --      5.5365                 5.0082                 5.6867
 Frc consts  --      1.3540                 1.3238                 1.5933
 IR Inten    --      1.2949                 2.5784                 6.2868

                     19                     20                     21
                      A                      A                      A
 Frequencies --    764.9375               805.2694               875.2515
 Red. masses --      5.4875                 1.2684                 1.4127
 Frc consts  --      1.8918                 0.4846                 0.6376
 IR Inten    --     25.4620                40.4276                 1.2609

                     22                     23                     24
                      A                      A                      A
 Frequencies --    901.0566               969.5263               994.4626
 Red. masses --      4.7396                 2.6026                 4.7485
 Frc consts  --      2.2673                 1.4414                 2.7668
 IR Inten    --      3.2467                 7.4786                 8.4009

                     25                     26                     27
                      A                      A                      A
 Frequencies --   1015.1077              1046.8305              1062.4261
 Red. masses --      1.9103                 1.3567                 1.4917
 Frc consts  --      1.1598                 0.8759                 0.9920
 IR Inten    --      4.7915                31.9669                 1.9955

                     28                     29                     30
                      A                      A                      A
 Frequencies --   1077.9457              1113.1570              1126.0632
 Red. masses --      1.3932                 2.4968                 1.2318
 Frc consts  --      0.9538                 1.8229                 0.9203
 IR Inten    --     13.4622               182.0334                 1.6988

                     31                     32                     33
                      A                      A                      A
 Frequencies --   1163.6939              1225.9917              1238.9749
 Red. masses --      1.3871                 1.7482                 3.8730
 Frc consts  --      1.1067                 1.5482                 3.5028
 IR Inten    --      7.5404                20.1122                 2.4117

                     34                     35                     36
                      A                      A                      A
 Frequencies --   1259.0488              1284.9826              1386.2913
 Red. masses --      4.9105                 4.5604                 3.1751
 Frc consts  --      4.5863                 4.4366                 3.5952
 IR Inten    --      4.3345                65.5449                15.4864

                     37                     38                     39
                      A                      A                      A
 Frequencies --   1411.4926              1418.5918              1437.7800
 Red. masses --      2.2126                 1.4480                 1.1473
 Frc consts  --      2.5973                 1.7169                 1.3974
 IR Inten    --    169.6874                26.4596                 9.3399

                     40                     41                     42
                      A                      A                      A
 Frequencies --   1469.3409              1473.8073              1489.8565
 Red. masses --      1.2207                 1.0416                 1.1000
 Frc consts  --      1.5527                 1.3330                 1.4386
 IR Inten    --     25.7889                 8.3365                14.4104

                     43                     44                     45
                      A                      A                      A
 Frequencies --   1491.1492              1495.7767              1510.4227
 Red. masses --      1.0947                 1.0528                 1.0468
 Frc consts  --      1.4341                 1.3878                 1.4071
 IR Inten    --      3.0869                17.4442                 7.2996

                     46                     47                     48
                      A                      A                      A
 Frequencies --   1531.9008              1553.7501              1626.7576
 Red. masses --      1.3455                 4.3652                 5.7676
 Frc consts  --      1.8603                 6.2089                 8.9927
 IR Inten    --      6.6755               208.8344                 3.5483

                     49                     50                     51
                      A                      A                      A
 Frequencies --   1698.6632              3000.7462              3007.5874
 Red. masses --     10.5347                 1.0417                 1.0446
 Frc consts  --     17.9096                 5.5267                 5.5674
 IR Inten    --    352.9009                41.6790                99.7958

                     52                     53                     54
                      A                      A                      A
 Frequencies --   3029.7373              3043.7514              3061.3319
 Red. masses --      1.0374                 1.1019                 1.0970
 Frc consts  --      5.6105                 6.0146                 6.0574
 IR Inten    --     24.2119                44.3732                28.8551

                     55                     56                     57
                      A                      A                      A
 Frequencies --   3079.2586              3120.9353              3152.1659
 Red. masses --      1.1007                 1.0997                 1.0946
 Frc consts  --      6.1492                 6.3108                 6.4080
 IR Inten    --     10.1625                10.1209                 4.8741

                     58                     59                     60
                      A                      A                      A
 Frequencies --   3155.8359              3241.3332              3255.4061
 Red. masses --      1.0962                 1.0937                 1.1011
 Frc consts  --      6.4325                 6.7703                 6.8753
 IR Inten    --      2.9747                 5.8359                 0.4480

 - Thermochemistry -
 -------------------
 Temperature   298.150 Kelvin.  Pressure   1.00000 Atm.
 Atom     1 has atomic number  6 and mass  12.00000

 Molecular mass:   153.07898 amu.
 Principal axes and moments of inertia in atomic units:
                           1         2         3
     Eigenvalues --   672.411842787.582843278.69963
           X            0.99989  -0.01451  -0.00019
           Y            0.01451   0.99989  -0.00242
           Z            0.00022   0.00242   1.00000
 This molecule is an asymmetric top.
 Rotational symmetry number  1.
 Warning -- assumption of classical behavior for rotation
           may cause significant error
 Rotational temperatures (Kelvin)      0.12881     0.03107     0.02642
 Rotational constants (GHZ):           2.68398     0.64742     0.55044
 Zero-point vibrational energy     472441.9 (Joules/Mol)
                                  112.91634 (Kcal/Mol)
 Warning -- explicit consideration of  14 degrees of freedom as
           vibrations may cause significant error
 Vibrational temperatures:     66.41   111.22   143.19   167.65   190.95
          (Kelvin)            230.16   285.14   327.69   373.48   434.58
                              514.61   543.90   599.69   734.00   908.79
                              926.96   963.69   992.18  1100.57  1158.60
                             1259.29  1296.42  1394.93  1430.81  1460.51
                             1506.15  1528.59  1550.92  1601.58  1620.15
                             1674.29  1763.93  1782.61  1811.49  1848.80
                             1994.56  2030.82  2041.03  2068.64  2114.05
                             2120.48  2143.57  2145.43  2152.09  2173.16
                             2204.06  2235.50  2340.54  2443.99  4317.40
                             4327.24  4359.11  4379.27  4404.57  4430.36
                             4490.32  4535.26  4540.54  4663.55  4683.80

 Zero-point correction=                           0.179944 (Hartree/Particle)
 Thermal correction to Energy=                    0.191500
 Thermal correction to Enthalpy=                  0.192444
 Thermal correction to Gibbs Free Energy=         0.141994
 Sum of electronic and zero-point Energies=           -516.627910
 Sum of electronic and thermal Energies=              -516.616354
 Sum of electronic and thermal Enthalpies=            -516.615410
 Sum of electronic and thermal Free Energies=         -516.665860

                     E (Thermal)             CV                S
                      KCal/Mol        Cal/Mol-Kelvin    Cal/Mol-Kelvin
 Total                  120.168             41.063            106.181
 Electronic               0.000              0.000              0.000
 Translational            0.889              2.981             40.987
 Rotational               0.889              2.981             30.198
 Vibrational            118.390             35.102             34.996
 Vibration     1          0.595              1.979              4.976
 Vibration     2          0.599              1.964              3.958
 Vibration     3          0.604              1.949              3.464
 Vibration     4          0.608              1.936              3.157
 Vibration     5          0.613              1.921              2.906
 Vibration     6          0.622              1.891              2.550
 Vibration     7          0.637              1.842              2.150
 Vibration     8          0.651              1.799              1.897
 Vibration     9          0.668              1.747              1.665
 Vibration    10          0.694              1.670              1.406
 Vibration    11          0.733              1.559              1.132
 Vibration    12          0.748              1.517              1.047
 Vibration    13          0.780              1.434              0.903
 Vibration    14          0.865              1.227              0.633

 Optimization completed.
    -- Stationary point found.
 Normal termination of Gaussian 09 at Thu Feb  2 15:42:15 2023.
