 Gaussian 09, Revision D.01,
 Gaussian 09:  ES64L-G09RevD.01 24-Apr-2013

 ----------------------------------------------------------------------
 # opt freq=noraman b3lyp/6-311+g(d,p) pop=(npa,hirshfeld,chelpg,mbs) g
 eom=connectivity
 ----------------------------------------------------------------------

 -------------------
 Title Card Required
 -------------------
 Symbolic Z-matrix:
 Charge =  0 Multiplicity = 1

 SCF Done:  E(RB3LYP) =  -674.015483793     A.U. after   15 cycles
 SCF Done:  E(RB3LYP) =  -674.053858258     A.U. after   13 cycles
 SCF Done:  E(RB3LYP) =  -674.075187556     A.U. after   15 cycles
 SCF Done:  E(RB3LYP) =  -674.083898542     A.U. after   14 cycles
 SCF Done:  E(RB3LYP) =  -674.085041301     A.U. after   13 cycles
 SCF Done:  E(RB3LYP) =  -674.084802185     A.U. after   15 cycles
 SCF Done:  E(RB3LYP) =  -674.086858622     A.U. after   12 cycles
 SCF Done:  E(RB3LYP) =  -674.087186584     A.U. after   14 cycles
 SCF Done:  E(RB3LYP) =  -674.088946829     A.U. after   13 cycles
 SCF Done:  E(RB3LYP) =  -674.090130375     A.U. after   14 cycles
 SCF Done:  E(RB3LYP) =  -674.091331867     A.U. after   10 cycles
 SCF Done:  E(RB3LYP) =  -674.091334077     A.U. after   10 cycles
 SCF Done:  E(RB3LYP) =  -674.091335442     A.U. after   10 cycles
 SCF Done:  E(RB3LYP) =  -674.091336542     A.U. after   11 cycles
 SCF Done:  E(RB3LYP) =  -674.091337491     A.U. after   10 cycles
 SCF Done:  E(RB3LYP) =  -674.091338236     A.U. after   10 cycles
 SCF Done:  E(RB3LYP) =  -674.091338292     A.U. after    8 cycles
 SCF Done:  E(RB3LYP) =  -674.091338316     A.U. after    9 cycles
 SCF Done:  E(RB3LYP) =  -674.091338328     A.U. after    7 cycles
 Optimization completed.
    -- Stationary point found.
 Normal termination of Gaussian 09 at Thu Feb  2 16:06:48 2023.

 ----------------------------------------------------------------------
 #N Geom=AllCheck Guess=TCheck SCRF=Check GenChk RB3LYP/6-311+G(d,p) Fr
 eq
 ----------------------------------------------------------------------

 Structure from the checkpoint file:  "regiodevergent1e_Ishiyana.chk"
 -------------------
 Title Card Required
 -------------------
 Charge =  0 Multiplicity = 1

                         Standard orientation:
 ---------------------------------------------------------------------
 Center     Atomic      Atomic             Coordinates (Angstroms)
 Number     Number       Type             X           Y           Z
 ---------------------------------------------------------------------
      1          6           0        3.264712   -0.137908   -0.212159
      2          6           0        2.815135    0.420483   -1.375361
      3          6           0        1.390335    0.345308   -1.336654
      4          6           0        1.062480   -0.253190   -0.152365
      5          8           0        2.208909   -0.559446    0.532908
      6          1           0        3.428917    0.825410   -2.164641
      7          1           0        0.696194    0.656307   -2.099362
      8          6           0        4.618731   -0.357966    0.359576
      9          1           0        4.734282    0.164684    1.313907
     10          1           0        4.799324   -1.421500    0.541522
     11          1           0        5.378984    0.010279   -0.330328
     12          6           0       -0.205673   -0.762206    0.410222
     13          8           0       -0.219923   -1.805517    1.046254
     14          7           0       -1.353426   -0.035867    0.079581
     15          6           0       -2.633198   -0.810591    0.134701
     16          1           0       -2.841043   -1.075909    1.180605
     17          6           0       -1.424426    1.404275    0.510015
     18          1           0       -2.400248    1.493359    0.989059
     19          6           0       -2.528482   -2.103970   -0.688082
     20          1           0       -2.294474   -1.867737   -1.730886
     21          1           0       -1.773604   -2.783111   -0.301056
     22          1           0       -3.491929   -2.619950   -0.667995
     23          6           0       -3.820753   -0.005933   -0.415599
     24          1           0       -4.712655   -0.635067   -0.368606
     25          1           0       -4.045508    0.903734    0.141923
     26          1           0       -3.657863    0.262681   -1.463099
     27          6           0       -1.394723    2.390221   -0.663424
     28          1           0       -2.107548    2.108502   -1.439935
     29          1           0       -1.651710    3.395105   -0.313483
     30          1           0       -0.399511    2.438127   -1.109624
     31          6           0       -0.410931    1.799813    1.596005
     32          1           0       -0.406988    1.082632    2.420378
     33          1           0        0.604873    1.888458    1.209304
     34          1           0       -0.696639    2.774757    2.000707
 ---------------------------------------------------------------------

 SCF Done:  E(RB3LYP) =  -674.091338328     A.U. after    1 cycles

 The electronic state is 1-A.
 Alpha  occ. eigenvalues --  -19.19179 -19.09290 -14.32910 -10.27506 -10.24056
 Alpha  occ. eigenvalues --  -10.22863 -10.21942 -10.21061 -10.18489 -10.18383
 Alpha  occ. eigenvalues --  -10.17711 -10.16663 -10.16591 -10.16479 -10.15122
 Alpha  occ. eigenvalues --   -1.12107  -1.04048  -0.92634  -0.81277  -0.80167
 Alpha  occ. eigenvalues --   -0.79364  -0.76540  -0.71161  -0.69668  -0.68747
 Alpha  occ. eigenvalues --   -0.63300  -0.61601  -0.60243  -0.56469  -0.54960
 Alpha  occ. eigenvalues --   -0.51122  -0.50169  -0.47419  -0.46918  -0.46701
 Alpha  occ. eigenvalues --   -0.44837  -0.43808  -0.42581  -0.41789  -0.41699
 Alpha  occ. eigenvalues --   -0.41619  -0.41195  -0.40157  -0.39488  -0.39120
 Alpha  occ. eigenvalues --   -0.38824  -0.37821  -0.37270  -0.36228  -0.35968
 Alpha  occ. eigenvalues --   -0.34722  -0.34442  -0.33735  -0.29217  -0.26398
 Alpha  occ. eigenvalues --   -0.24029  -0.23309
 Alpha virt. eigenvalues --   -0.04283  -0.00314   0.00411   0.01318   0.01784
 Alpha virt. eigenvalues --    0.02253   0.02739   0.02993   0.03872   0.04200
 Alpha virt. eigenvalues --    0.04303   0.05032   0.05401   0.05908   0.06088

 Mulliken charges:
               1
     1  C    0.362261
     2  C   -0.387764
     3  C   -0.234463
     4  C   -0.056713
     5  O    0.043349
     6  H    0.122986
     7  H    0.135918
     8  C   -0.419129
     9  H    0.157957
    10  H    0.162913
    11  H    0.151546
    12  C   -0.154196
    13  O   -0.256646
    14  N    0.361628
    15  C   -0.178132
    16  H    0.153365
    17  C    0.006477
    18  H    0.133312
    19  C   -0.388194
    20  H    0.142417
    21  H    0.179064
    22  H    0.134056
    23  C   -0.455831
    24  H    0.148272
    25  H    0.133125
    26  H    0.149127
    27  C   -0.462095
    28  H    0.142029
    29  H    0.137596
    30  H    0.136257
    31  C   -0.575555
    32  H    0.162975
    33  H    0.168149
    34  H    0.143936
 Sum of Mulliken charges =   0.00000

 Dipole moment (field-independent basis, Debye):
    X=              0.2535    Y=              3.1742    Z=             -1.4675  Tot=              3.5062
 Quadrupole moment (field-independent basis, Debye-Ang):
   XX=            -76.9857   YY=            -97.8821   ZZ=            -93.3331
   XY=              0.0050   XZ=             -1.8848   YZ=              3.5136

  Exact polarizability: 201.272   1.508 142.402  -0.348  -8.522 134.777
 Approx polarizability: 254.316   2.775 211.476  -4.322 -30.676 221.583

 ESP charges:
               1
     1  C    0.401117
     2  C   -0.362031
     3  C   -0.023140
     4  C   -0.040429
     5  O   -0.245553
     6  H    0.156340
     7  H    0.103024
     8  C   -0.397512
     9  H    0.123841
    10  H    0.128501
    11  H    0.111116
    12  C    0.757835
    13  O   -0.577138
    14  N   -0.802823
    15  C    0.675268
    16  H   -0.079519
    17  C    0.690328
    18  H   -0.077051
    19  C   -0.362647
    20  H    0.055581
    21  H    0.112739
    22  H    0.071772
    23  C   -0.411816
    24  H    0.082272
    25  H    0.086268
    26  H    0.105226
    27  C   -0.354659
    28  H    0.079540
    29  H    0.058078
    30  H    0.068674
    31  C   -0.355622
    32  H    0.089725
    33  H    0.072850
    34  H    0.059844
 Sum of ESP charges =   0.00000

 Summary of Natural Population Analysis:

                                       Natural Population
                Natural  -----------------------------------------------
    Atom  No    Charge         Core      Valence    Rydberg      Total
 -----------------------------------------------------------------------
      C    1    0.33189      1.99900     3.64406    0.02505     5.66811
      C    2   -0.31289      1.99901     4.29844    0.01544     6.31289
      C    3   -0.24843      1.99904     4.23422    0.01517     6.24843
      C    4    0.19401      1.99882     3.77787    0.02931     5.80599
      O    5   -0.45272      1.99969     6.43664    0.01640     8.45272
      H    6    0.22283      0.00000     0.77576    0.00141     0.77717
      H    7    0.22879      0.00000     0.76951    0.00170     0.77121
      C    8   -0.61741      1.99929     4.60913    0.00899     6.61741
      H    9    0.22126      0.00000     0.77696    0.00178     0.77874
      H   10    0.22410      0.00000     0.77417    0.00173     0.77590
      H   11    0.21801      0.00000     0.78089    0.00109     0.78199
      C   12    0.65084      1.99919     3.30562    0.04435     5.34916
      O   13   -0.59194      1.99976     6.58051    0.01167     8.59194
      N   14   -0.56206      1.99928     5.53615    0.02663     7.56206
      C   15   -0.01383      1.99924     3.99676    0.01783     6.01383
      H   16    0.19010      0.00000     0.80661    0.00330     0.80990
      C   17   -0.01223      1.99921     3.99600    0.01702     6.01223
      H   18    0.19268      0.00000     0.80460    0.00273     0.80732
      C   19   -0.58415      1.99932     4.57478    0.01005     6.58415
      H   20    0.19566      0.00000     0.80247    0.00188     0.80434
      H   21    0.23179      0.00000     0.76662    0.00158     0.76821
      H   22    0.20008      0.00000     0.79861    0.00131     0.79992
      C   23   -0.58071      1.99932     4.57172    0.00967     6.58071
      H   24    0.20991      0.00000     0.78882    0.00127     0.79009
      H   25    0.19749      0.00000     0.80120    0.00131     0.80251
      H   26    0.19960      0.00000     0.79852    0.00188     0.80040
      C   27   -0.57883      1.99931     4.56956    0.00995     6.57883
      H   28    0.20498      0.00000     0.79360    0.00143     0.79502
      H   29    0.19950      0.00000     0.79916    0.00134     0.80050
      H   30    0.20223      0.00000     0.79598    0.00179     0.79777
      C   31   -0.59009      1.99931     4.58137    0.00941     6.59009
      H   32    0.21449      0.00000     0.78436    0.00115     0.78551
      H   33    0.20803      0.00000     0.79046    0.00151     0.79197
      H   34    0.20702      0.00000     0.79176    0.00122     0.79298
 =======================================================================
   * Total *    0.00000     29.98877    83.71289    0.29834   114.00000

                      1                      2                      3
                      A                      A                      A
 Frequencies --     19.6852                46.6960                59.9708
 Red. masses --      2.5901                 3.6997                 2.8662
 Frc consts  --      0.0006                 0.0048                 0.0061
 IR Inten    --      0.6070                 1.1254                 1.2172

                      4                      5                      6
                      A                      A                      A
 Frequencies --     79.6397               105.7662               126.9642
 Red. masses --      3.0515                 2.7750                 2.3390
 Frc consts  --      0.0114                 0.0183                 0.0222
 IR Inten    --      0.7009                 2.0093                 4.0930

                      7                      8                      9
                      A                      A                      A
 Frequencies --    137.8187               181.7278               191.2362
 Red. masses --      1.5377                 1.9442                 3.0036
 Frc consts  --      0.0172                 0.0378                 0.0647
 IR Inten    --      1.5926                 0.8109                 1.7801

                     10                     11                     12
                      A                      A                      A
 Frequencies --    208.5284               234.3249               240.1173
 Red. masses --      1.7650                 1.4650                 1.9379
 Frc consts  --      0.0452                 0.0474                 0.0658
 IR Inten    --      1.1794                 2.1601                 2.0269

                     13                     14                     15
                      A                      A                      A
 Frequencies --    256.2470               276.5385               301.0507
 Red. masses --      1.1325                 1.3942                 2.6018
 Frc consts  --      0.0438                 0.0628                 0.1389
 IR Inten    --      0.0370                 1.0922                 0.4561

                     16                     17                     18
                      A                      A                      A
 Frequencies --    313.6839               332.4969               372.0396
 Red. masses --      2.5484                 2.6725                 3.6981
 Frc consts  --      0.1477                 0.1741                 0.3016
 IR Inten    --      0.8098                 2.0096                 6.6138

                     19                     20                     21
                      A                      A                      A
 Frequencies --    382.5288               401.5067               442.7687
 Red. masses --      3.1515                 3.1630                 2.3449
 Frc consts  --      0.2717                 0.3004                 0.2709
 IR Inten    --      2.2924                 0.4142                 1.7113

                     22                     23                     24
                      A                      A                      A
 Frequencies --    465.0455               488.0928               558.3461
 Red. masses --      2.4858                 3.5892                 3.1243
 Frc consts  --      0.3167                 0.5038                 0.5739
 IR Inten    --      7.2669                 1.0375                 3.0782

                     25                     26                     27
                      A                      A                      A
 Frequencies --    633.8773               643.2266               666.4988
 Red. masses --      3.4811                 4.4466                 4.5534
 Frc consts  --      0.8241                 1.0839                 1.1917
 IR Inten    --      2.2243                 1.6526                 2.4259

                     28                     29                     30
                      A                      A                      A
 Frequencies --    687.5899               782.6373               806.4997
 Red. masses --      5.0694                 4.2991                 1.4114
 Frc consts  --      1.4121                 1.5515                 0.5409
 IR Inten    --      4.0555                23.4649                48.4106

                     31                     32                     33
                      A                      A                      A
 Frequencies --    822.6585               870.9875               886.9874
 Red. masses --      3.0950                 2.6880                 1.4442
 Frc consts  --      1.2341                 1.2015                 0.6694
 IR Inten    --     24.1643                 3.4717                 3.2385

                     34                     35                     36
                      A                      A                      A
 Frequencies --    915.3066               931.8831               935.3232
 Red. masses --      2.5626                 1.2373                 1.1743
 Frc consts  --      1.2649                 0.6331                 0.6053
 IR Inten    --      1.3439                 1.0797                 2.5807

                     37                     38                     39
                      A                      A                      A
 Frequencies --    948.0038               955.9636               965.5970
 Red. masses --      1.4046                 1.4984                 2.7026
 Frc consts  --      0.7438                 0.8068                 1.4847
 IR Inten    --      1.1635                 0.1486                 3.5652

                     40                     41                     42
                      A                      A                      A
 Frequencies --    990.0704              1011.0323              1030.6413
 Red. masses --      4.9222                 1.8170                 2.5359
 Frc consts  --      2.8428                 1.0943                 1.5871
 IR Inten    --      5.1748                 3.7528                13.1367

                     43                     44                     45
                      A                      A                      A
 Frequencies --   1040.6693              1061.8987              1113.9698
 Red. masses --      1.4186                 1.4938                 2.1929
 Frc consts  --      0.9052                 0.9925                 1.6033
 IR Inten    --     27.9316                 1.6347                93.3573

                     46                     47                     48
                      A                      A                      A
 Frequencies --   1129.6647              1146.7055              1161.4654
 Red. masses --      2.0696                 2.3062                 2.1350
 Frc consts  --      1.5561                 1.7867                 1.6969
 IR Inten    --     17.9040                10.6798                23.7866

                     49                     50                     51
                      A                      A                      A
 Frequencies --   1184.6015              1200.0538              1219.3167
 Red. masses --      1.9875                 2.4468                 1.9585
 Frc consts  --      1.6433                 2.0761                 1.7155
 IR Inten    --     24.8320                66.9466                 8.7878

                     52                     53                     54
                      A                      A                      A
 Frequencies --   1225.5812              1241.7880              1303.4763
 Red. masses --      2.2666                 4.5648                 3.5618
 Frc consts  --      2.0059                 4.1473                 3.5656
 IR Inten    --     36.6028                41.6733               260.6745

                     55                     56                     57
                      A                      A                      A
 Frequencies --   1348.5983              1352.7354              1357.4167
 Red. masses --      1.4860                 1.2924                 1.2641
 Frc consts  --      1.5923                 1.3934                 1.3723
 IR Inten    --     13.9850                11.7783                 9.4866

                     58                     59                     60
                      A                      A                      A
 Frequencies --   1386.8841              1398.3086              1400.0128
 Red. masses --      2.9489                 1.2786                 1.2574
 Frc consts  --      3.3418                 1.4730                 1.4521
 IR Inten    --     13.4322                 6.8672                24.3649

                     61                     62                     63
                      A                      A                      A
 Frequencies --   1416.7807              1420.3310              1423.0268
 Red. masses --      1.2767                 1.2591                 1.2306
 Frc consts  --      1.5099                 1.4965                 1.4682
 IR Inten    --      1.6383                14.0443                10.8943

                     64                     65                     66
                      A                      A                      A
 Frequencies --   1438.9058              1473.8864              1481.8969
 Red. masses --      1.4278                 1.0415                 1.0507
 Frc consts  --      1.7418                 1.3330                 1.3595
 IR Inten    --     36.4600                 8.3125                 5.8306

                     67                     68                     69
                      A                      A                      A
 Frequencies --   1485.3683              1490.1794              1495.7107
 Red. masses --      1.0428                 1.1303                 1.0542
 Frc consts  --      1.3556                 1.4788                 1.3895
 IR Inten    --      1.5145                 9.6346                 2.0518

                     70                     71                     72
                      A                      A                      A
 Frequencies --   1501.6189              1503.8967              1507.0179
 Red. masses --      1.0438                 1.0464                 1.0534
 Frc consts  --      1.3867                 1.3943                 1.4096
 IR Inten    --      2.8588                 2.7930                 5.0234

                     73                     74                     75
                      A                      A                      A
 Frequencies --   1517.4360              1527.3760              1553.9085
 Red. masses --      1.0629                 1.0471                 6.9032
 Frc consts  --      1.4420                 1.4392                 9.8209
 IR Inten    --      9.7259                21.5019               164.9616

                     76                     77                     78
                      A                      A                      A
 Frequencies --   1625.4255              1698.7632              2986.8489
 Red. masses --      5.8503                11.4567                 1.0833
 Frc consts  --      9.1067                19.4794                 5.6940
 IR Inten    --      4.0044               281.8363                29.0017

                     79                     80                     81
                      A                      A                      A
 Frequencies --   3029.3933              3030.1046              3031.0179
 Red. masses --      1.0374                 1.0400                 1.0389
 Frc consts  --      5.6091                 5.6263                 5.6235
 IR Inten    --     26.7404                15.5860                19.0385

                     82                     83                     84
                      A                      A                      A
 Frequencies --   3037.1847              3037.7286              3065.8210
 Red. masses --      1.0376                 1.0396                 1.0846
 Frc consts  --      5.6395                 5.6519                 6.0066
 IR Inten    --     28.6868                29.6594                 6.3860

                     85                     86                     87
                      A                      A                      A
 Frequencies --   3078.5953              3086.9368              3092.9407
 Red. masses --      1.1008                 1.1009                 1.0985
 Frc consts  --      6.1469                 6.1807                 6.1915
 IR Inten    --      9.9869                10.5868                 4.4137

                     88                     89                     90
                      A                      A                      A
 Frequencies --   3097.5417              3099.9764              3111.9108
 Red. masses --      1.0991                 1.0998                 1.0991
 Frc consts  --      6.2131                 6.2270                 6.2708
 IR Inten    --     35.4043                61.6826                35.8618

                     91                     92                     93
                      A                      A                      A
 Frequencies --   3118.0347              3120.6532              3122.4385
 Red. masses --      1.1018                 1.0996                 1.1000
 Frc consts  --      6.3111                 6.3094                 6.3188
 IR Inten    --     15.8737                10.0981                43.9565

                     94                     95                     96
                      A                      A                      A
 Frequencies --   3154.0954              3242.6345              3266.4487
 Red. masses --      1.0961                 1.0953                 1.0993
 Frc consts  --      6.4244                 6.7857                 6.9107
 IR Inten    --      6.1604                 5.2259                 0.3023

 - Thermochemistry -
 -------------------
 Temperature   298.150 Kelvin.  Pressure   1.00000 Atm.
 Atom     1 has atomic number  6 and mass  12.00000

 Molecular mass:   209.14158 amu.
 Principal axes and moments of inertia in atomic units:
                           1         2         3
     Eigenvalues --  1695.375954783.675225395.28216
           X            0.99997   0.00067   0.00792
           Y           -0.00094   0.99942   0.03391
           Z           -0.00790  -0.03392   0.99939
 This molecule is an asymmetric top.
 Rotational symmetry number  1.
 Warning -- assumption of classical behavior for rotation
           may cause significant error
 Rotational temperatures (Kelvin)      0.05109     0.01811     0.01605
 Rotational constants (GHZ):           1.06451     0.37727     0.33450
 Zero-point vibrational energy     767718.9 (Joules/Mol)
                                  183.48923 (Kcal/Mol)
 Warning -- explicit consideration of  24 degrees of freedom as
           vibrations may cause significant error
 Vibrational temperatures:     28.32    67.19    86.28   114.58   152.17
          (Kelvin)            182.67   198.29   261.47   275.15   300.03
                              337.14   345.47   368.68   397.88   433.14
                              451.32   478.39   535.28   550.37   577.68
                              637.04   669.10   702.26   803.33   912.01
                              925.46   958.94   989.29  1126.04  1160.37
                             1183.62  1253.16  1276.18  1316.92  1340.77
                             1345.72  1363.96  1375.42  1389.28  1424.49
                             1454.65  1482.86  1497.29  1527.83  1602.75
                             1625.33  1649.85  1671.09  1704.38  1726.61
                             1754.32  1763.34  1786.65  1875.41  1940.33
                             1946.28  1953.02  1995.41  2011.85  2014.30
                             2038.43  2043.54  2047.42  2070.26  2120.59
                             2132.12  2137.11  2144.03  2151.99  2160.49
                             2163.77  2168.26  2183.25  2197.55  2235.72
                             2338.62  2444.14  4297.40  4358.62  4359.64
                             4360.95  4369.83  4370.61  4411.03  4429.41
                             4441.41  4450.05  4456.67  4460.17  4477.34
                             4486.15  4489.92  4492.49  4538.03  4665.42
                             4699.69

 Zero-point correction=                           0.292409 (Hartree/Particle)
 Thermal correction to Energy=                    0.309037
 Thermal correction to Enthalpy=                  0.309981
 Thermal correction to Gibbs Free Energy=         0.247840
 Sum of electronic and zero-point Energies=           -673.798930
 Sum of electronic and thermal Energies=              -673.782301
 Sum of electronic and thermal Enthalpies=            -673.781357
 Sum of electronic and thermal Free Energies=         -673.843498

                     E (Thermal)             CV                S
                      KCal/Mol        Cal/Mol-Kelvin    Cal/Mol-Kelvin
 Total                  193.924             61.942            130.786
 Electronic               0.000              0.000              0.000
 Translational            0.889              2.981             41.917
 Rotational               0.889              2.981             32.148
 Vibrational            192.146             55.980             56.721
 Vibration     1          0.593              1.986              6.666
 Vibration     2          0.595              1.979              4.953
 Vibration     3          0.597              1.973              4.458
 Vibration     4          0.600              1.963              3.900
 Vibration     5          0.605              1.945              3.345
 Vibration     6          0.611              1.926              2.992
 Vibration     7          0.614              1.916              2.834
 Vibration     8          0.630              1.865              2.311
 Vibration     9          0.634              1.852              2.216
 Vibration    10          0.642              1.828              2.057
 Vibration    11          0.654              1.788              1.846
 Vibration    12          0.657              1.779              1.802
 Vibration    13          0.666              1.752              1.687
 Vibration    14          0.678              1.717              1.555
 Vibration    15          0.693              1.672              1.411
 Vibration    16          0.702              1.648              1.343
 Vibration    17          0.714              1.611              1.248
 Vibration    18          0.744              1.530              1.071
 Vibration    19          0.752              1.507              1.029
 Vibration    20          0.767              1.467              0.957
 Vibration    21          0.802              1.377              0.818
 Vibration    22          0.822              1.328              0.752
 Vibration    23          0.844              1.276              0.689
 Vibration    24          0.914              1.121              0.527

 Optimization completed.
    -- Stationary point found.
 Normal termination of Gaussian 09 at Thu Feb  2 16:18:49 2023.
