 Gaussian 09, Revision D.01,
 Gaussian 09:  ES64L-G09RevD.01 24-Apr-2013

 ----------------------------------------------------------------------
 # opt freq b3lyp/6-311+g(d,p) geom=connectivity pop=(hirshfeld,chelpg,
 mbs,npa)
 ----------------------------------------------------------------------

 -------------------
 Title Card Required
 -------------------
 Symbolic Z-matrix:
 Charge =  0 Multiplicity = 1

 SCF Done:  E(RB3LYP) =  -311.164902308     A.U. after   12 cycles
 SCF Done:  E(RB3LYP) =  -311.171219021     A.U. after   10 cycles
 SCF Done:  E(RB3LYP) =  -311.171434900     A.U. after    9 cycles
 SCF Done:  E(RB3LYP) =  -311.171463603     A.U. after    8 cycles
 SCF Done:  E(RB3LYP) =  -311.171465409     A.U. after    7 cycles
 SCF Done:  E(RB3LYP) =  -311.171465600     A.U. after    7 cycles
 SCF Done:  E(RB3LYP) =  -311.171465699     A.U. after    7 cycles
 SCF Done:  E(RB3LYP) =  -311.171465251     A.U. after    8 cycles
 SCF Done:  E(RB3LYP) =  -311.171462672     A.U. after    8 cycles
 SCF Done:  E(RB3LYP) =  -311.171464387     A.U. after    8 cycles
 SCF Done:  E(RB3LYP) =  -311.176300599     A.U. after    9 cycles
 SCF Done:  E(RB3LYP) =  -311.176352041     A.U. after   10 cycles
 SCF Done:  E(RB3LYP) =  -311.176395496     A.U. after   10 cycles
 SCF Done:  E(RB3LYP) =  -311.176455265     A.U. after   10 cycles
 SCF Done:  E(RB3LYP) =  -311.176473620     A.U. after   10 cycles
 SCF Done:  E(RB3LYP) =  -311.176477850     A.U. after    8 cycles
 SCF Done:  E(RB3LYP) =  -311.176477502     A.U. after    9 cycles
 SCF Done:  E(RB3LYP) =  -311.176478264     A.U. after    8 cycles
 SCF Done:  E(RB3LYP) =  -311.176478223     A.U. after    7 cycles
 Optimization completed.
    -- Stationary point found.
 Normal termination of Gaussian 09 at Tue Nov  2 17:18:10 2021.

 ----------------------------------------------------------------------
 #N Geom=AllCheck Guess=TCheck SCRF=Check GenChk RB3LYP/6-311+G(d,p) Fr
 eq
 ----------------------------------------------------------------------

 Structure from the checkpoint file:  "Table2_2.chk"
 -------------------
 Title Card Required
 -------------------
 Charge =  0 Multiplicity = 1

                         Standard orientation:
 ---------------------------------------------------------------------
 Center     Atomic      Atomic             Coordinates (Angstroms)
 Number     Number       Type             X           Y           Z
 ---------------------------------------------------------------------
      1          6           0        0.637980    0.019132   -0.020607
      2          8           0       -0.206887   -0.803245    0.832920
      3          6           0       -1.566151   -0.738120    0.402094
      4          6           0       -1.703201    0.615789   -0.291902
      5          6           0       -0.341337    0.732066   -0.990954
      6          1           0       -1.786377   -1.560247   -0.295332
      7          1           0       -2.203514   -0.855044    1.281207
      8          1           0       -2.547144    0.657900   -0.984058
      9          1           0       -1.831693    1.409277    0.449929
     10          1           0       -0.367227    0.208051   -1.951304
     11          1           0       -0.043118    1.764169   -1.185586
     12          6           0        1.624611   -0.895060   -0.749335
     13          1           0        2.261163   -0.319627   -1.429032
     14          1           0        2.266408   -1.412835   -0.032166
     15          1           0        1.089508   -1.647373   -1.334483
     16          6           0        1.372432    1.005266    0.891423
     17          1           0        1.911065    0.462213    1.671670
     18          1           0        2.093169    1.601464    0.323513
     19          1           0        0.666850    1.683581    1.377969
 ---------------------------------------------------------------------

 SCF Done:  E(RB3LYP) =  -311.176478223     A.U. after    1 cycles

 The electronic state is 1-A.
 Alpha  occ. eigenvalues --  -19.11151 -10.22689 -10.21188 -10.17265 -10.17173
 Alpha  occ. eigenvalues --  -10.15712 -10.15642  -1.02843  -0.79678  -0.77714
 Alpha  occ. eigenvalues --   -0.69076  -0.67186  -0.60029  -0.54788  -0.49678
 Alpha  occ. eigenvalues --   -0.48497  -0.44648  -0.42855  -0.42461  -0.41098
 Alpha  occ. eigenvalues --   -0.38346  -0.37853  -0.36048  -0.35433  -0.33480
 Alpha  occ. eigenvalues --   -0.33051  -0.31209  -0.25034
 Alpha virt. eigenvalues --    0.00175   0.01712   0.02209   0.02911   0.04463
 Alpha virt. eigenvalues --    0.04742   0.04976   0.05700   0.06334   0.07203
 Alpha virt. eigenvalues --    0.08035   0.08662   0.09121   0.09784   0.10392

 Mulliken charges:
               1
     1  C   -0.106487
     2  O   -0.103471
     3  C   -0.139889
     4  C   -0.294431
     5  C   -0.221327
     6  H    0.128908
     7  H    0.147242
     8  H    0.147611
     9  H    0.149939
    10  H    0.147867
    11  H    0.150233
    12  C   -0.398238
    13  H    0.133573
    14  H    0.148692
    15  H    0.147800
    16  C   -0.463047
    17  H    0.152209
    18  H    0.132919
    19  H    0.139897
 Sum of Mulliken charges =   0.00000

 Dipole moment (field-independent basis, Debye):
    X=             -0.5301    Y=              1.0383    Z=             -1.2862  Tot=              1.7359
 Quadrupole moment (field-independent basis, Debye-Ang):
   XX=            -42.9704   YY=            -46.4774   ZZ=            -46.7530
   XY=              0.5807   XZ=             -0.2399   YZ=              1.4302

  Exact polarizability:  82.104   0.883  71.160  -0.232   0.700  69.751
 Approx polarizability: 104.443   1.784  98.897  -0.392  -0.879  99.331

 ESP charges:
               1
     1  C    0.663683
     2  O   -0.573644
     3  C    0.266864
     4  C   -0.121167
     5  C    0.049865
     6  H   -0.016605
     7  H    0.009613
     8  H    0.016444
     9  H    0.036672
    10  H   -0.017919
    11  H   -0.034047
    12  C   -0.425534
    13  H    0.061900
    14  H    0.108512
    15  H    0.103347
    16  C   -0.358922
    17  H    0.087524
    18  H    0.064981
    19  H    0.078434
 Sum of ESP charges =   0.00000

 Summary of Natural Population Analysis:

                                       Natural Population
                Natural  -----------------------------------------------
    Atom  No    Charge         Core      Valence    Rydberg      Total
 -----------------------------------------------------------------------
      C    1    0.26693      1.99914     3.70722    0.02671     5.73307
      O    2   -0.62677      1.99976     6.60682    0.02019     8.62677
      C    3   -0.02186      1.99924     4.00103    0.02159     6.02186
      C    4   -0.41333      1.99930     4.40097    0.01306     6.41333
      C    5   -0.40484      1.99920     4.39014    0.01551     6.40484
      H    6    0.15450      0.00000     0.84295    0.00255     0.84550
      H    7    0.18322      0.00000     0.81492    0.00186     0.81678
      H    8    0.20728      0.00000     0.79064    0.00207     0.79272
      H    9    0.19706      0.00000     0.80084    0.00211     0.80294
      H   10    0.19932      0.00000     0.79903    0.00164     0.80068
      H   11    0.21085      0.00000     0.78771    0.00145     0.78915
      C   12   -0.58649      1.99924     4.57509    0.01216     6.58649
      H   13    0.19898      0.00000     0.79952    0.00149     0.80102
      H   14    0.20828      0.00000     0.79018    0.00155     0.79172
      H   15    0.20329      0.00000     0.79521    0.00150     0.79671
      C   16   -0.58641      1.99924     4.57483    0.01234     6.58641
      H   17    0.21056      0.00000     0.78789    0.00155     0.78944
      H   18    0.19748      0.00000     0.80111    0.00141     0.80252
      H   19    0.20194      0.00000     0.79635    0.00171     0.79806
 =======================================================================
   * Total *    0.00000     13.99512    41.86244    0.14244    56.00000

                      1                      2                      3
                      A                      A                      A
 Frequencies --     52.3330               219.3552               231.2500
 Red. masses --      2.7585                 1.4253                 1.2408
 Frc consts  --      0.0045                 0.0404                 0.0391
 IR Inten    --      2.5613                 0.3075                 0.0284

                      4                      5                      6
                      A                      A                      A
 Frequencies --    261.4484               338.1508               344.8505
 Red. masses --      1.0404                 2.1271                 2.3723
 Frc consts  --      0.0419                 0.1433                 0.1662
 IR Inten    --      0.2312                 1.6888                 0.7936

                      7                      8                      9
                      A                      A                      A
 Frequencies --    397.2076               452.7462               575.7877
 Red. masses --      2.3181                 2.6947                 2.2504
 Frc consts  --      0.2155                 0.3254                 0.4396
 IR Inten    --      2.1482                 4.5196                 0.5546

                     10                     11                     12
                      A                      A                      A
 Frequencies --    619.1874               749.1761               832.6614
 Red. masses --      2.8147                 3.6337                 2.3444
 Frc consts  --      0.6358                 1.2016                 0.9577
 IR Inten    --      1.0317                 6.7131                20.9899

                     13                     14                     15
                      A                      A                      A
 Frequencies --    884.7515               899.5689               928.2657
 Red. masses --      1.5447                 2.0891                 2.0692
 Frc consts  --      0.7124                 0.9960                 1.0505
 IR Inten    --      2.1483                 9.0215                 3.0404

                     16                     17                     18
                      A                      A                      A
 Frequencies --    933.9447               954.6915              1004.7167
 Red. masses --      1.7064                 2.0166                 1.2567
 Frc consts  --      0.8769                 1.0829                 0.7474
 IR Inten    --      0.7919                 3.1988                 0.5473

                     19                     20                     21
                      A                      A                      A
 Frequencies --   1013.9773              1058.3771              1072.5107
 Red. masses --      1.6475                 1.5274                 4.3808
 Frc consts  --      0.9980                 1.0080                 2.9690
 IR Inten    --      3.8600                 9.7878               107.1580

                     22                     23                     24
                      A                      A                      A
 Frequencies --   1153.4526              1184.0428              1218.2608
 Red. masses --      1.9339                 1.5207                 1.5729
 Frc consts  --      1.5160                 1.2561                 1.3754
 IR Inten    --     42.6539                 0.2970                 0.0850

                     25                     26                     27
                      A                      A                      A
 Frequencies --   1236.9595              1261.1258              1286.4040
 Red. masses --      1.8682                 1.7422                 1.7705
 Frc consts  --      1.6842                 1.6325                 1.7262
 IR Inten    --     14.6362                 7.6126                19.1400

                     28                     29                     30
                      A                      A                      A
 Frequencies --   1330.3485              1341.9206              1379.2887
 Red. masses --      1.5473                 1.2977                 1.3243
 Frc consts  --      1.6134                 1.3769                 1.4844
 IR Inten    --      6.3708                 4.1067                 1.7589

                     31                     32                     33
                      A                      A                      A
 Frequencies --   1400.1207              1417.2820              1475.8676
 Red. masses --      1.2981                 1.2432                 1.0507
 Frc consts  --      1.4993                 1.4713                 1.3484
 IR Inten    --     18.4840                 8.2527                 0.1843

                     34                     35                     36
                      A                      A                      A
 Frequencies --   1485.0647              1490.7743              1497.1349
 Red. masses --      1.0604                 1.0745                 1.0620
 Frc consts  --      1.3779                 1.4070                 1.4025
 IR Inten    --      0.4998                 6.6593                 7.2500

                     37                     38                     39
                      A                      A                      A
 Frequencies --   1500.6611              1507.7619              1527.7928
 Red. masses --      1.0786                 1.0672                 1.0970
 Frc consts  --      1.4311                 1.4295                 1.5087
 IR Inten    --      7.2759                 2.1178                 0.7264

                     40                     41                     42
                      A                      A                      A
 Frequencies --   2968.0090              3022.0518              3027.2831
 Red. masses --      1.0730                 1.0350                 1.0371
 Frc consts  --      5.5689                 5.5690                 5.5998
 IR Inten    --     78.5636                21.5731                15.8008

                     43                     44                     45
                      A                      A                      A
 Frequencies --   3038.7408              3041.2762              3077.0531
 Red. masses --      1.0660                 1.0604                 1.0905
 Frc consts  --      5.7996                 5.7787                 6.0833
 IR Inten    --     21.2256                27.5174                47.0392

                     46                     47                     48
                      A                      A                      A
 Frequencies --   3084.9142              3087.2195              3093.4481
 Red. masses --      1.0983                 1.1009                 1.1013
 Frc consts  --      6.1585                 6.1821                 6.2092
 IR Inten    --     17.2775                 7.9166                44.0967

                     49                     50                     51
                      A                      A                      A
 Frequencies --   3094.0796              3099.6839              3102.4968
 Red. masses --      1.1050                 1.1034                 1.1018
 Frc consts  --      6.2329                 6.2465                 6.2485
 IR Inten    --     16.0574                50.1213                43.2446

 - Thermochemistry -
 -------------------
 Temperature   298.150 Kelvin.  Pressure   1.00000 Atm.
 Atom     1 has atomic number  6 and mass  12.00000

 Molecular mass:   100.08882 amu.
 Principal axes and moments of inertia in atomic units:
                           1         2         3
     Eigenvalues --   456.39457 791.91590 833.66480
           X            1.00000  -0.00115   0.00122
           Y            0.00077   0.96130   0.27551
           Z           -0.00149  -0.27551   0.96130
 This molecule is an asymmetric top.
 Rotational symmetry number  1.
 Warning -- assumption of classical behavior for rotation
           may cause significant error
 Rotational temperatures (Kelvin)      0.18978     0.10937     0.10390
 Rotational constants (GHZ):           3.95434     2.27896     2.16483
 Zero-point vibrational energy     450127.7 (Joules/Mol)
                                  107.58311 (Kcal/Mol)
 Warning -- explicit consideration of  10 degrees of freedom as
           vibrations may cause significant error
 Vibrational temperatures:     75.30   315.60   332.72   376.17   486.52
          (Kelvin)            496.16   571.49   651.40   828.43   890.87
                             1077.90  1198.01  1272.96  1294.28  1335.57
                             1343.74  1373.59  1445.56  1458.89  1522.77
                             1543.10  1659.56  1703.57  1752.80  1779.71
                             1814.48  1850.85  1914.07  1930.72  1984.49
                             2014.46  2039.15  2123.44  2136.67  2144.89
                             2154.04  2159.11  2169.33  2198.15  4270.30
                             4348.05  4355.58  4372.06  4375.71  4427.19
                             4438.50  4441.81  4450.78  4451.68  4459.75
                             4463.80

 Zero-point correction=                           0.171445 (Hartree/Particle)
 Thermal correction to Energy=                    0.178974
 Thermal correction to Enthalpy=                  0.179918
 Thermal correction to Gibbs Free Energy=         0.139989
 Sum of electronic and zero-point Energies=           -311.005034
 Sum of electronic and thermal Energies=              -310.997505
 Sum of electronic and thermal Enthalpies=            -310.996560
 Sum of electronic and thermal Free Energies=         -311.036489

                     E (Thermal)             CV                S
                      KCal/Mol        Cal/Mol-Kelvin    Cal/Mol-Kelvin
 Total                  112.308             28.703             84.037
 Electronic               0.000              0.000              0.000
 Translational            0.889              2.981             39.721
 Rotational               0.889              2.981             27.202
 Vibrational            110.530             22.741             17.115
 Vibration     1          0.596              1.977              4.727
 Vibration     2          0.647              1.812              1.964
 Vibration     3          0.653              1.793              1.869
 Vibration     4          0.669              1.743              1.652
 Vibration     5          0.718              1.599              1.221
 Vibration     6          0.723              1.586              1.190
 Vibration     7          0.764              1.476              0.973
 Vibration     8          0.811              1.355              0.788
 Vibration     9          0.932              1.084              0.493
 Vibration    10          0.979              0.991              0.418

 Optimization completed.
    -- Stationary point found.
 Normal termination of Gaussian 09 at Tue Nov  2 17:19:53 2021.
