 Gaussian 09, Revision D.01,
 Gaussian 09:  ES64L-G09RevD.01 24-Apr-2013

 ---------------------------------------------------------------------
 # b3lyp/6-311+g(d,p) geom=connectivity pop=(hirshfeld,chelpg,mbs,npa)
 ---------------------------------------------------------------------

 --------
 Table5_7
 --------
 Symbolic Z-matrix:
 Charge =  0 Multiplicity = 1

                         Standard orientation:
 ---------------------------------------------------------------------
 Center     Atomic      Atomic             Coordinates (Angstroms)
 Number     Number       Type             X           Y           Z
 ---------------------------------------------------------------------
      1          6           0        0.247409   -0.671785    0.000019
      2          6           0        0.248588    0.749644   -0.000051
      3          6           0       -0.981815    1.427181    0.000036
      4          6           0       -2.156950    0.691106    0.000181
      5          6           0       -2.133612   -0.717582    0.000242
      6          6           0       -0.934473   -1.416928    0.000163
      7          6           0        2.388548    0.031349   -0.000341
      8          6           0        1.623961    1.165911   -0.000197
      9          1           0       -1.011254    2.511373   -0.000006
     10          1           0       -3.111855    1.204369    0.000255
     11          1           0       -3.068924   -1.265650    0.000363
     12          1           0       -0.920104   -2.501462    0.000223
     13          1           0        1.881876   -2.035246    0.000026
     14          1           0        3.461211   -0.082611   -0.000512
     15          1           0        1.997263    2.178023   -0.000271
     16          7           0        1.565979   -1.080310   -0.000056
 ---------------------------------------------------------------------

 SCF Done:  E(RB3LYP) =  -363.913901619     A.U. after   14 cycles

 The electronic state is 1-A.
 Alpha  occ. eigenvalues --  -14.36159 -10.20825 -10.20711 -10.17547 -10.17260
 Alpha  occ. eigenvalues --  -10.17046 -10.16985 -10.16500 -10.16353  -0.98558
 Alpha  occ. eigenvalues --   -0.84362  -0.78702  -0.73984  -0.72180  -0.62890
 Alpha  occ. eigenvalues --   -0.59955  -0.58678  -0.54487  -0.48801  -0.47613
 Alpha  occ. eigenvalues --   -0.44364  -0.43471  -0.42673  -0.41781  -0.39790
 Alpha  occ. eigenvalues --   -0.36167  -0.34167  -0.33979  -0.28477  -0.22953
 Alpha  occ. eigenvalues --   -0.21320
 Alpha virt. eigenvalues --   -0.02277  -0.00503   0.01243   0.01342   0.01943
 Alpha virt. eigenvalues --    0.03489   0.03739   0.03968   0.05444   0.05785
 Alpha virt. eigenvalues --    0.06356   0.06597   0.08181   0.08476   0.10051

 Mulliken charges:
               1
     1  C   -0.804929
     2  C    1.781193
     3  C   -0.819013
     4  C   -0.043890
     5  C   -0.280228
     6  C   -0.494971
     7  C   -0.050476
     8  C   -0.142706
     9  H    0.115827
    10  H    0.119886
    11  H    0.121059
    12  H    0.105696
    13  H    0.284537
    14  H    0.119778
    15  H    0.115766
    16  N   -0.127529
 Sum of Mulliken charges =   0.00000

 Dipole moment (field-independent basis, Debye):
    X=              1.4969    Y=             -1.5202    Z=              0.0000  Tot=              2.1335
 Quadrupole moment (field-independent basis, Debye-Ang):
   XX=            -45.7183   YY=            -44.7770   ZZ=            -58.7464
   XY=             -3.0958   XZ=             -0.0013   YZ=             -0.0006

 ESP charges:
               1
     1  C    0.204835
     2  C    0.282657
     3  C   -0.292933
     4  C   -0.074097
     5  C   -0.119761
     6  C   -0.218208
     7  C    0.032093
     8  C   -0.397664
     9  H    0.137352
    10  H    0.082081
    11  H    0.092851
    12  H    0.117863
    13  H    0.361749
    14  H    0.117478
    15  H    0.157792
    16  N   -0.484088
 Sum of ESP charges =   0.00000

 Summary of Natural Population Analysis:

                                       Natural Population
                Natural  -----------------------------------------------
    Atom  No    Charge         Core      Valence    Rydberg      Total
 -----------------------------------------------------------------------
      C    1    0.15076      1.99897     3.82947    0.02080     5.84924
      C    2   -0.09753      1.99900     4.08158    0.01694     6.09753
      C    3   -0.18560      1.99908     4.16937    0.01715     6.18560
      C    4   -0.22794      1.99918     4.21015    0.01862     6.22794
      C    5   -0.20922      1.99919     4.19125    0.01877     6.20922
      C    6   -0.23746      1.99906     4.22139    0.01700     6.23746
      C    7   -0.00585      1.99921     3.98423    0.02241     6.00585
      C    8   -0.28628      1.99908     4.26995    0.01725     6.28628
      H    9    0.20590      0.00000     0.79238    0.00172     0.79410
      H   10    0.20415      0.00000     0.79439    0.00146     0.79585
      H   11    0.20402      0.00000     0.79452    0.00146     0.79598
      H   12    0.20620      0.00000     0.79194    0.00186     0.79380
      H   13    0.40383      0.00000     0.59387    0.00230     0.59617
      H   14    0.20571      0.00000     0.79283    0.00147     0.79429
      H   15    0.21923      0.00000     0.77913    0.00164     0.78077
      N   16   -0.54992      1.99931     5.53570    0.01490     7.54992
 =======================================================================
   * Total *    0.00000     17.99209    43.83217    0.17574    62.00000

 Normal termination of Gaussian 09 at Fri Jul 23 17:35:08 2021.
