 Gaussian 09, Revision D.01,
 Gaussian 09:  ES64L-G09RevD.01 24-Apr-2013

 ----------------------------------------------------------------------
 # opt=rcfc freq=noraman b3lyp/6-311+g(d,p) pop=(npa,hirshfeld,chelpg,m
 bs) geom=allcheck guess=read
 ----------------------------------------------------------------------

 Structure from the checkpoint file:  "regiodevergent1c_Ishiyana.chk"
 -------------------
 Title Card Required
 -------------------
 Charge =  0 Multiplicity = 1

 SCF Done:  E(RB3LYP) =  -497.368696165     A.U. after    2 cycles
 SCF Done:  E(RB3LYP) =  -497.368696319     A.U. after    9 cycles
 Optimization completed.
    -- Stationary point found.
 Normal termination of Gaussian 09 at Thu Feb  2 15:48:36 2023.

 ----------------------------------------------------------------------
 #N Geom=AllCheck Guess=TCheck SCRF=Check GenChk RB3LYP/6-311+G(d,p) Fr
 eq
 ----------------------------------------------------------------------

 Structure from the checkpoint file:  "regiodevergent1c_Ishiyana.chk"
 -------------------
 Title Card Required
 -------------------
 Charge =  0 Multiplicity = 1

                         Standard orientation:
 ---------------------------------------------------------------------
 Center     Atomic      Atomic             Coordinates (Angstroms)
 Number     Number       Type             X           Y           Z
 ---------------------------------------------------------------------
      1          6           0       -2.227947   -0.002620    0.000000
      2          6           0       -1.942176    1.335796    0.000000
      3          6           0       -0.522583    1.447525    0.000000
      4          6           0       -0.036292    0.169725    0.000000
      5          8           0       -1.075799   -0.719948    0.000000
      6          1           0       -2.662641    2.138452    0.000001
      7          1           0        0.072445    2.346077    0.000001
      8          6           0       -3.497382   -0.774517    0.000000
      9          1           0       -3.565957   -1.416992   -0.882786
     10          1           0       -3.565960   -1.416988    0.882788
     11          1           0       -4.348363   -0.092615   -0.000003
     12          6           0        1.315138   -0.390991    0.000000
     13          8           0        1.587852   -1.568364    0.000001
     14          8           0        2.239994    0.600171   -0.000001
     15          6           0        3.611435    0.168302    0.000000
     16          1           0        4.202105    1.081837   -0.000005
     17          1           0        3.825411   -0.426972    0.888928
     18          1           0        3.825409   -0.426981   -0.888922
 ---------------------------------------------------------------------

 SCF Done:  E(RB3LYP) =  -497.368696319     A.U. after    1 cycles

 The electronic state is 1-A.
 Alpha  occ. eigenvalues --  -19.20051 -19.17068 -19.11141 -10.30758 -10.24871
 Alpha  occ. eigenvalues --  -10.23812 -10.22774 -10.19230 -10.18960 -10.18356
 Alpha  occ. eigenvalues --   -1.13190  -1.10840  -1.02354  -0.82078  -0.80771
 Alpha  occ. eigenvalues --   -0.75045  -0.70208  -0.62756  -0.60283  -0.56493
 Alpha  occ. eigenvalues --   -0.54400  -0.49509  -0.47874  -0.47538  -0.47503
 Alpha  occ. eigenvalues --   -0.44421  -0.42474  -0.42418  -0.42002  -0.40567
 Alpha  occ. eigenvalues --   -0.39700  -0.38544  -0.36760  -0.31278  -0.29842
 Alpha  occ. eigenvalues --   -0.28728  -0.24245
 Alpha virt. eigenvalues --   -0.05147  -0.00140   0.00933   0.01996   0.02111
 Alpha virt. eigenvalues --    0.03070   0.04345   0.04373   0.04968   0.05578
 Alpha virt. eigenvalues --    0.05928   0.06820   0.07598   0.07777   0.09112

 Mulliken charges:
               1
     1  C    0.050999
     2  C   -0.240902
     3  C   -0.514639
     4  C   -0.283452
     5  O   -0.038119
     6  H    0.126714
     7  H    0.142588
     8  C   -0.285975
     9  H    0.163200
    10  H    0.163200
    11  H    0.154040
    12  C    0.697213
    13  O   -0.279763
    14  O   -0.167830
    15  C   -0.151850
    16  H    0.150531
    17  H    0.157022
    18  H    0.157023
 Sum of Mulliken charges =   0.00000

 Dipole moment (field-independent basis, Debye):
    X=             -1.2480    Y=              2.4776    Z=              0.0000  Tot=              2.7742
 Quadrupole moment (field-independent basis, Debye-Ang):
   XX=            -42.0901   YY=            -61.7391   ZZ=            -59.3012
   XY=              3.2525   XZ=              0.0000   YZ=              0.0000

  Exact polarizability: 133.155  -2.038  93.483   0.000   0.000  58.773
 Approx polarizability: 166.602  -8.899 159.052   0.000   0.000  86.202

 ESP charges:
               1
     1  C    0.408106
     2  C   -0.303802
     3  C   -0.029507
     4  C   -0.146266
     5  O   -0.217740
     6  H    0.143781
     7  H    0.110533
     8  C   -0.434043
     9  H    0.136048
    10  H    0.136047
    11  H    0.121608
    12  C    0.852674
    13  O   -0.569604
    14  O   -0.469555
    15  C    0.127669
    16  H    0.054021
    17  H    0.040015
    18  H    0.040016
 Sum of ESP charges =   0.00000

 Summary of Natural Population Analysis:

                                       Natural Population
                Natural  -----------------------------------------------
    Atom  No    Charge         Core      Valence    Rydberg      Total
 -----------------------------------------------------------------------
      C    1    0.34087      1.99901     3.63495    0.02516     5.65913
      C    2   -0.31230      1.99902     4.29791    0.01537     6.31230
      C    3   -0.22043      1.99908     4.20625    0.01510     6.22043
      C    4    0.17133      1.99883     3.80306    0.02677     5.82867
      O    5   -0.44519      1.99969     6.42955    0.01594     8.44519
      H    6    0.22473      0.00000     0.77388    0.00139     0.77527
      H    7    0.23422      0.00000     0.76415    0.00164     0.76578
      C    8   -0.61914      1.99928     4.61079    0.00906     6.61914
      H    9    0.22486      0.00000     0.77346    0.00168     0.77514
      H   10    0.22486      0.00000     0.77346    0.00168     0.77514
      H   11    0.21928      0.00000     0.77965    0.00107     0.78072
      C   12    0.75045      1.99926     3.20463    0.04565     5.24955
      O   13   -0.58374      1.99975     6.57212    0.01187     8.58374
      O   14   -0.55457      1.99973     6.54082    0.01402     8.55457
      C   15   -0.21407      1.99925     4.19853    0.01628     6.21407
      H   16    0.18588      0.00000     0.81299    0.00113     0.81412
      H   17    0.18647      0.00000     0.81164    0.00189     0.81353
      H   18    0.18647      0.00000     0.81164    0.00189     0.81353
 =======================================================================
   * Total *    0.00000     19.99293    53.79947    0.20760    74.00000

                      1                      2                      3
                      A                      A                      A
 Frequencies --     65.8171                93.9431               115.7789
 Red. masses --      3.7014                 1.9572                 1.0629
 Frc consts  --      0.0094                 0.0102                 0.0084
 IR Inten    --      1.8168                 3.3725                 0.2299

                      4                      5                      6
                      A                      A                      A
 Frequencies --    128.4700               131.4764               186.7789
 Red. masses --      1.5711                 3.9911                 4.5571
 Frc consts  --      0.0153                 0.0406                 0.0937
 IR Inten    --      1.1512                 2.7724                 0.0760

                      7                      8                      9
                      A                      A                      A
 Frequencies --    278.5499               279.0652               341.5584
 Red. masses --      3.7893                 3.7608                 3.6865
 Frc consts  --      0.1732                 0.1726                 0.2534
 IR Inten    --      7.4584                 4.8870                 9.8446

                     10                     11                     12
                      A                      A                      A
 Frequencies --    398.7941               511.1424               617.4143
 Red. masses --      5.3208                 5.7922                 4.4240
 Frc consts  --      0.4986                 0.8916                 0.9936
 IR Inten    --      0.6129                 2.9314                 1.2876

                     13                     14                     15
                      A                      A                      A
 Frequencies --    643.4242               669.9237               781.4835
 Red. masses --      4.6287                 4.4288                 4.4234
 Frc consts  --      1.1290                 1.1711                 1.5917
 IR Inten    --      0.5210                 1.6153                35.2495

                     16                     17                     18
                      A                      A                      A
 Frequencies --    803.4784               814.3673               892.8642
 Red. masses --      5.4732                 1.3573                 1.4101
 Frc consts  --      2.0818                 0.5304                 0.6623
 IR Inten    --      8.1207                28.0698                 0.7518

                     19                     20                     21
                      A                      A                      A
 Frequencies --    943.1640               973.9529               996.2008
 Red. masses --      6.1199                 2.4504                 3.4275
 Frc consts  --      3.2075                 1.3695                 2.0041
 IR Inten    --      7.8687                20.2562                 2.6378

                     22                     23                     24
                      A                      A                      A
 Frequencies --   1032.1491              1042.3425              1062.1027
 Red. masses --      3.2461                 1.3696                 1.4992
 Frc consts  --      2.0375                 0.8767                 0.9964
 IR Inten    --      8.5203                36.8635                 2.1725

                     25                     26                     27
                      A                      A                      A
 Frequencies --   1159.8497              1171.1428              1208.3744
 Red. masses --      4.0556                 1.2764                 1.6763
 Frc consts  --      3.2144                 1.0315                 1.4421
 IR Inten    --    297.4625                 0.7566               136.1049

                     28                     29                     30
                      A                      A                      A
 Frequencies --   1229.1270              1243.0516              1316.6635
 Red. masses --      1.6987                 4.5957                 6.5054
 Frc consts  --      1.5120                 4.1839                 6.6447
 IR Inten    --     69.0821                 4.4734               226.9514

                     31                     32                     33
                      A                      A                      A
 Frequencies --   1397.8024              1418.2166              1469.6005
 Red. masses --      3.0842                 1.3267                 1.2009
 Frc consts  --      3.5505                 1.5722                 1.5281
 IR Inten    --     28.6047                 0.4238                16.6413

                     34                     35                     36
                      A                      A                      A
 Frequencies --   1473.7196              1482.3199              1489.4272
 Red. masses --      1.0413                 1.0446                 1.1464
 Frc consts  --      1.3324                 1.3524                 1.4984
 IR Inten    --      8.6815                 9.5584                13.2383

                     37                     38                     39
                      A                      A                      A
 Frequencies --   1499.0296              1552.8803              1623.3180
 Red. masses --      1.0517                 6.8241                 5.8368
 Frc consts  --      1.3924                 9.6955                 9.0621
 IR Inten    --     14.7593               182.0065                 1.0782

                     40                     41                     42
                      A                      A                      A
 Frequencies --   1777.1163              3031.2174              3048.5050
 Red. masses --     11.8071                 1.0374                 1.0297
 Frc consts  --     21.9697                 5.6158                 5.6380
 IR Inten    --    392.1521                20.4834                39.5272

                     43                     44                     45
                      A                      A                      A
 Frequencies --   3081.0812              3119.9449              3123.2177
 Red. masses --      1.1008                 1.1070                 1.0997
 Frc consts  --      6.1570                 6.3487                 6.3203
 IR Inten    --      9.0618                19.9526                 9.2080

                     46                     47                     48
                      A                      A                      A
 Frequencies --   3154.2243              3244.8215              3263.9342
 Red. masses --      1.1060                 1.0950                 1.1006
 Frc consts  --      6.4831                 6.7929                 6.9083
 IR Inten    --     14.9026                 3.2660                 0.0736

 - Thermochemistry -
 -------------------
 Temperature   298.150 Kelvin.  Pressure   1.00000 Atm.
 Atom     1 has atomic number  6 and mass  12.00000

 Molecular mass:   140.04734 amu.
 Principal axes and moments of inertia in atomic units:
                           1         2         3
     Eigenvalues --   458.883462405.440412841.72931
           X            0.99994   0.01135   0.00000
           Y           -0.01135   0.99994   0.00000
           Z            0.00000   0.00000   1.00000
 This molecule is an asymmetric top.
 Rotational symmetry number  1.
 Warning -- assumption of classical behavior for rotation
           may cause significant error
 Rotational temperatures (Kelvin)      0.18875     0.03601     0.03048
 Rotational constants (GHZ):           3.93290     0.75027     0.63509
 Zero-point vibrational energy     367150.8 (Joules/Mol)
                                   87.75116 (Kcal/Mol)
 Warning -- explicit consideration of  12 degrees of freedom as
           vibrations may cause significant error
 Vibrational temperatures:     94.70   135.16   166.58   184.84   189.16
          (Kelvin)            268.73   400.77   401.51   491.43   573.78
                              735.42   888.32   925.74   963.87  1124.38
                             1156.02  1171.69  1284.63  1357.00  1401.30
                             1433.31  1485.03  1499.70  1528.13  1668.76
                             1685.01  1738.58  1768.44  1788.47  1894.38
                             2011.12  2040.49  2114.42  2120.35  2132.72
                             2142.95  2156.77  2234.25  2335.59  2556.87
                             4361.24  4386.11  4432.98  4488.90  4493.61
                             4538.22  4668.57  4696.07

 Zero-point correction=                           0.139840 (Hartree/Particle)
 Thermal correction to Energy=                    0.149722
 Thermal correction to Enthalpy=                  0.150667
 Thermal correction to Gibbs Free Energy=         0.104046
 Sum of electronic and zero-point Energies=           -497.228856
 Sum of electronic and thermal Energies=              -497.218974
 Sum of electronic and thermal Enthalpies=            -497.218030
 Sum of electronic and thermal Free Energies=         -497.264651

                     E (Thermal)             CV                S
                      KCal/Mol        Cal/Mol-Kelvin    Cal/Mol-Kelvin
 Total                   93.952             34.658             98.122
 Electronic               0.000              0.000              0.000
 Translational            0.889              2.981             40.722
 Rotational               0.889              2.981             29.529
 Vibrational             92.175             28.696             27.871
 Vibration     1          0.597              1.971              4.275
 Vibration     2          0.603              1.954              3.576
 Vibration     3          0.608              1.936              3.170
 Vibration     4          0.611              1.925              2.969
 Vibration     5          0.612              1.922              2.924
 Vibration     6          0.632              1.858              2.260
 Vibration     7          0.679              1.713              1.543
 Vibration     8          0.679              1.712              1.539
 Vibration     9          0.721              1.592              1.205
 Vibration    10          0.765              1.473              0.967
 Vibration    11          0.866              1.225              0.631
 Vibration    12          0.977              0.995              0.421

 Optimization completed.
    -- Stationary point found.
 Normal termination of Gaussian 09 at Thu Feb  2 15:50:19 2023.
