 Gaussian 09, Revision D.01,
 Gaussian 09:  ES64L-G09RevD.01 24-Apr-2013

 ---------------------------------------------------------------------
 # b3lyp/6-311+g(d,p) geom=connectivity pop=(hirshfeld,chelpg,mbs,npa)
 ---------------------------------------------------------------------

 ---------
 Table3_10
 ---------
 Symbolic Z-matrix:
 Charge =  0 Multiplicity = 1

                         Standard orientation:
 ---------------------------------------------------------------------
 Center     Atomic      Atomic             Coordinates (Angstroms)
 Number     Number       Type             X           Y           Z
 ---------------------------------------------------------------------
      1          6           0        0.061622   -0.553648    0.000037
      2          6           0       -0.111025    0.851389   -0.000056
      3          6           0       -1.417016    1.371970    0.000026
      4          6           0       -2.499833    0.507387    0.000196
      5          6           0       -2.307487   -0.884927    0.000287
      6          6           0       -1.029276   -1.426420    0.000208
      7          6           0        2.215626    0.711668   -0.000263
      8          6           0        1.148809    1.548197   -0.000232
      9          1           0       -1.569858    2.445765   -0.000044
     10          1           0       -3.507645    0.906486    0.000260
     11          1           0       -3.166861   -1.545601    0.000420
     12          1           0       -0.883968   -2.500411    0.000279
     13          1           0        3.262952    0.974488   -0.000380
     14          1           0        1.237098    2.626950   -0.000326
     15         16           0        1.766235   -0.978835   -0.000089
 ---------------------------------------------------------------------

 SCF Done:  E(RB3LYP) =  -706.757665582     A.U. after   16 cycles

 The electronic state is 1-A.
 Alpha  occ. eigenvalues --  -88.87805 -10.21265 -10.20979 -10.19197 -10.18792
 Alpha  occ. eigenvalues --  -10.18504 -10.18390 -10.18207 -10.17995  -7.96421
 Alpha  occ. eigenvalues --   -5.92735  -5.92369  -5.91960  -0.89905  -0.83597
 Alpha  occ. eigenvalues --   -0.77701  -0.73509  -0.71795  -0.62426  -0.59298
 Alpha  occ. eigenvalues --   -0.57785  -0.51239  -0.48818  -0.47022  -0.44029
 Alpha  occ. eigenvalues --   -0.43524  -0.40793  -0.39873  -0.37394  -0.36269
 Alpha  occ. eigenvalues --   -0.34225  -0.33897  -0.29292  -0.24612  -0.22758
 Alpha virt. eigenvalues --   -0.03938  -0.01928  -0.00450   0.00525   0.01725
 Alpha virt. eigenvalues --    0.01931   0.02194   0.03443   0.04375   0.04807
 Alpha virt. eigenvalues --    0.05165   0.05954   0.07000   0.07010   0.07855

 Mulliken charges:
               1
     1  C   -0.170120
     2  C    0.232575
     3  C   -1.401990
     4  C    0.066855
     5  C   -0.316373
     6  C    1.069057
     7  C   -0.197148
     8  C    0.470796
     9  H    0.121962
    10  H    0.126582
    11  H    0.127153
    12  H    0.128089
    13  H    0.163803
    14  H    0.125842
    15  S   -0.547084
 Sum of Mulliken charges =   0.00000

 Dipole moment (field-independent basis, Debye):
    X=             -0.1359    Y=              0.6283    Z=              0.0000  Tot=              0.6428
 Quadrupole moment (field-independent basis, Debye-Ang):
   XX=            -53.2463   YY=            -53.9260   ZZ=            -65.1622
   XY=              2.3145   XZ=             -0.0013   YZ=             -0.0011

 ESP charges:
               1
     1  C   -0.016060
     2  C    0.328356
     3  C   -0.317128
     4  C   -0.010034
     5  C   -0.162799
     6  C   -0.081144
     7  C   -0.121111
     8  C   -0.314300
     9  H    0.141471
    10  H    0.079856
    11  H    0.094117
    12  H    0.122192
    13  H    0.170023
    14  H    0.150258
    15  S   -0.063698
 Sum of ESP charges =   0.00000

 Summary of Natural Population Analysis:

                                       Natural Population
                Natural  -----------------------------------------------
    Atom  No    Charge         Core      Valence    Rydberg      Total
 -----------------------------------------------------------------------
      C    1   -0.18010      1.99881     4.16020    0.02108     6.18010
      C    2   -0.09601      1.99893     4.07986    0.01722     6.09601
      C    3   -0.17991      1.99907     4.16398    0.01686     6.17991
      C    4   -0.21023      1.99917     4.19270    0.01836     6.21023
      C    5   -0.20213      1.99917     4.18436    0.01860     6.20213
      C    6   -0.21345      1.99901     4.19495    0.01948     6.21345
      C    7   -0.35458      1.99908     4.33466    0.02084     6.35458
      C    8   -0.23949      1.99900     4.22199    0.01849     6.23949
      H    9    0.20871      0.00000     0.78956    0.00173     0.79129
      H   10    0.20747      0.00000     0.79108    0.00145     0.79253
      H   11    0.20792      0.00000     0.79062    0.00147     0.79208
      H   12    0.21418      0.00000     0.78403    0.00178     0.78582
      H   13    0.22762      0.00000     0.77092    0.00146     0.77238
      H   14    0.22152      0.00000     0.77677    0.00170     0.77848
      S   15    0.38846      9.99893     5.56882    0.04379    15.61154
 =======================================================================
   * Total *    0.00000     25.99117    43.80452    0.20431    70.00000

 Normal termination of Gaussian 09 at Fri Jul 23 17:30:37 2021.
