 Gaussian 09, Revision D.01,
 Gaussian 09:  ES64L-G09RevD.01 24-Apr-2013

 ---------------------------------------------------------------------
 # b3lyp/6-311+g(d,p) geom=connectivity pop=(hirshfeld,chelpg,mbs,npa)
 ---------------------------------------------------------------------

 ---------
 Table9_12
 ---------
 Symbolic Z-matrix:
 Charge =  0 Multiplicity = 1

                         Standard orientation:
 ---------------------------------------------------------------------
 Center     Atomic      Atomic             Coordinates (Angstroms)
 Number     Number       Type             X           Y           Z
 ---------------------------------------------------------------------
      1          6           0       -0.952787   -0.849585   -0.001301
      2          6           0       -0.562711    0.525446    0.008851
      3          6           0       -1.564305    1.508792    0.008834
      4          6           0       -2.897443    1.120216   -0.007291
      5          6           0       -3.257818   -0.239386   -0.024135
      6          6           0       -2.291354   -1.239362   -0.022393
      7          6           0        1.285839   -0.770097    0.009542
      8          6           0        0.872655    0.528228    0.012367
      9          1           0       -1.299376    2.560475    0.020052
     10          1           0       -3.676245    1.874516   -0.007499
     11          1           0       -4.306604   -0.513357   -0.037673
     12          1           0       -2.573704   -2.286839   -0.033619
     13          6           0        2.042465    1.468886    0.094539
     14          6           0        3.252268    0.514604   -0.180400
     15          1           0        2.117349    1.933339    1.086018
     16          1           0        2.007164    2.285423   -0.633063
     17          1           0        4.128019    0.771101    0.419031
     18          1           0        3.541305    0.600814   -1.230587
     19          6           0        2.767790   -0.948098    0.088847
     20          1           0        3.075810   -1.302837    1.081140
     21          1           0        3.174227   -1.654130   -0.642542
     22          7           0        0.202093   -1.622707    0.012067
     23          1           0        0.229816   -2.627417   -0.030489
 ---------------------------------------------------------------------

 SCF Done:  E(RB3LYP) =  -480.670203252     A.U. after   15 cycles

 The electronic state is 1-A.
 Alpha  occ. eigenvalues --  -14.35609 -10.20434 -10.19836 -10.18528 -10.17607
 Alpha  occ. eigenvalues --  -10.17355 -10.17116 -10.16973 -10.16587 -10.16509
 Alpha  occ. eigenvalues --  -10.16096 -10.15495  -0.98038  -0.84060  -0.83693
 Alpha  occ. eigenvalues --   -0.76608  -0.73806  -0.70621  -0.69805  -0.62689
 Alpha  occ. eigenvalues --   -0.59572  -0.57648  -0.55578  -0.53310  -0.49679
 Alpha  occ. eigenvalues --   -0.47856  -0.45738  -0.43706  -0.43010  -0.41806
 Alpha  occ. eigenvalues --   -0.40865  -0.39496  -0.38340  -0.36202  -0.35408
 Alpha  occ. eigenvalues --   -0.35026  -0.34653  -0.33055  -0.32891  -0.27235
 Alpha  occ. eigenvalues --   -0.22341  -0.19944
 Alpha virt. eigenvalues --   -0.01554  -0.00396   0.00986   0.01226   0.01362
 Alpha virt. eigenvalues --    0.02853   0.03193   0.03404   0.04441   0.05046
 Alpha virt. eigenvalues --    0.05159   0.05420   0.06405   0.07240   0.07474

 Mulliken charges:
               1
     1  C   -0.498387
     2  C    1.660429
     3  C   -1.041312
     4  C   -0.120515
     5  C   -0.255029
     6  C   -0.638748
     7  C   -0.437888
     8  C    1.138575
     9  H    0.114986
    10  H    0.117924
    11  H    0.118722
    12  H    0.103627
    13  C   -0.609048
    14  C   -0.301246
    15  H    0.158461
    16  H    0.156483
    17  H    0.149716
    18  H    0.162945
    19  C   -0.467503
    20  H    0.161907
    21  H    0.154719
    22  N   -0.108908
    23  H    0.280090
 Sum of Mulliken charges =   0.00000

 Dipole moment (field-independent basis, Debye):
    X=              1.7066    Y=             -1.7179    Z=              0.0085  Tot=              2.4215
 Quadrupole moment (field-independent basis, Debye-Ang):
   XX=            -67.4943   YY=            -62.1436   ZZ=            -75.7255
   XY=             -0.1523   XZ=              0.1882   YZ=              0.2274

 ESP charges:
               1
     1  C    0.268854
     2  C    0.112628
     3  C   -0.206596
     4  C   -0.117157
     5  C   -0.088797
     6  C   -0.255788
     7  C    0.075521
     8  C   -0.272532
     9  H    0.116580
    10  H    0.087559
    11  H    0.086516
    12  H    0.126937
    13  C    0.383675
    14  C   -0.303033
    15  H   -0.074247
    16  H   -0.065990
    17  H    0.058147
    18  H    0.049686
    19  C    0.307039
    20  H   -0.053194
    21  H   -0.051840
    22  N   -0.546142
    23  H    0.362173
 Sum of ESP charges =   0.00000

 Summary of Natural Population Analysis:

                                       Natural Population
                Natural  -----------------------------------------------
    Atom  No    Charge         Core      Valence    Rydberg      Total
 -----------------------------------------------------------------------
      C    1    0.16566      1.99898     3.81494    0.02043     5.83434
      C    2   -0.09218      1.99897     4.07641    0.01680     6.09218
      C    3   -0.19000      1.99909     4.17398    0.01693     6.19000
      C    4   -0.22783      1.99918     4.21020    0.01845     6.22783
      C    5   -0.21506      1.99919     4.19688    0.01899     6.21506
      C    6   -0.23921      1.99906     4.22348    0.01666     6.23921
      C    7    0.17504      1.99883     3.80467    0.02146     5.82496
      C    8   -0.09446      1.99860     4.07855    0.01730     6.09446
      H    9    0.20560      0.00000     0.79274    0.00167     0.79440
      H   10    0.20294      0.00000     0.79558    0.00148     0.79706
      H   11    0.20301      0.00000     0.79550    0.00149     0.79699
      H   12    0.20527      0.00000     0.79297    0.00177     0.79473
      C   13   -0.38616      1.99927     4.37300    0.01389     6.38616
      C   14   -0.36491      1.99934     4.35172    0.01385     6.36491
      H   15    0.19831      0.00000     0.79954    0.00214     0.80169
      H   16    0.20375      0.00000     0.79425    0.00200     0.79625
      H   17    0.19900      0.00000     0.79910    0.00189     0.80100
      H   18    0.19680      0.00000     0.80141    0.00179     0.80320
      C   19   -0.40749      1.99923     4.39488    0.01338     6.40749
      H   20    0.20483      0.00000     0.79299    0.00218     0.79517
      H   21    0.20643      0.00000     0.79155    0.00202     0.79357
      N   22   -0.55142      1.99924     5.53745    0.01473     7.55142
      H   23    0.40206      0.00000     0.59451    0.00343     0.59794
 =======================================================================
   * Total *    0.00000     23.98897    59.78630    0.22473    84.00000

 Normal termination of Gaussian 09 at Fri Jul 23 17:39:56 2021.
