 Gaussian 09, Revision D.01,
 Gaussian 09:  ES64L-G09RevD.01 24-Apr-2013

 ---------------------------------------------------------------------
 # b3lyp/6-311+g(d,p) geom=connectivity pop=(hirshfeld,chelpg,mbs,npa)
 ---------------------------------------------------------------------

 --------
 Table9_1
 --------
 Symbolic Z-matrix:
 Charge =  0 Multiplicity = 1

                         Standard orientation:
 ---------------------------------------------------------------------
 Center     Atomic      Atomic             Coordinates (Angstroms)
 Number     Number       Type             X           Y           Z
 ---------------------------------------------------------------------
      1          6           0        0.209703   -0.658885    0.000130
      2          6           0        0.234016    0.761422    0.000091
      3          6           0        1.475615    1.415779    0.000106
      4          6           0        2.638621    0.657880   -0.000095
      5          6           0        2.589824   -0.748768   -0.000120
      6          6           0        1.375823   -1.425408    0.000078
      7          6           0       -1.931874    0.083611   -0.000222
      8          6           0       -1.134861    1.199212   -0.000046
      9          1           0        1.525061    2.499335    0.000170
     10          1           0        3.602666    1.153903   -0.000239
     11          1           0        3.514624   -1.314416   -0.000226
     12          1           0        1.340619   -2.509611    0.000180
     13          1           0       -1.450539   -1.990932   -0.000993
     14          1           0       -1.489827    2.218585   -0.000088
     15          7           0       -1.118716   -1.040663    0.000222
     16          6           0       -3.419203   -0.043808   -0.000017
     17          1           0       -3.779211   -0.582983   -0.883289
     18          1           0       -3.778964   -0.580260    0.885005
     19          1           0       -3.879403    0.944802   -0.001503
 ---------------------------------------------------------------------

 SCF Done:  E(RB3LYP) =  -403.244840374     A.U. after   14 cycles

 The electronic state is 1-A.
 Alpha  occ. eigenvalues --  -14.35546 -10.21303 -10.20339 -10.18370 -10.17184
 Alpha  occ. eigenvalues --  -10.16877 -10.16655 -10.16596 -10.16144 -10.15718
 Alpha  occ. eigenvalues --   -0.98239  -0.84108  -0.78911  -0.76080  -0.73216
 Alpha  occ. eigenvalues --   -0.68983  -0.61560  -0.58581  -0.58337  -0.53412
 Alpha  occ. eigenvalues --   -0.48569  -0.46092  -0.44745  -0.44630  -0.43106
 Alpha  occ. eigenvalues --   -0.41366  -0.40342  -0.40113  -0.38887  -0.35509
 Alpha  occ. eigenvalues --   -0.33790  -0.33215  -0.28024  -0.22359  -0.20730
 Alpha virt. eigenvalues --   -0.01722  -0.00679   0.01192   0.01454   0.01800
 Alpha virt. eigenvalues --    0.03137   0.03284   0.03723   0.05107   0.05471
 Alpha virt. eigenvalues --    0.05959   0.06473   0.07121   0.07859   0.08086

 Mulliken charges:
               1
     1  C   -0.726847
     2  C    1.568752
     3  C   -0.701264
     4  C   -0.067856
     5  C   -0.235296
     6  C   -0.576920
     7  C   -0.124376
     8  C    0.210820
     9  H    0.113760
    10  H    0.118391
    11  H    0.119217
    12  H    0.103448
    13  H    0.278353
    14  H    0.107025
    15  N   -0.098159
    16  C   -0.545546
    17  H    0.150614
    18  H    0.150790
    19  H    0.155094
 Sum of Mulliken charges =   0.00000

 Dipole moment (field-independent basis, Debye):
    X=             -2.1734    Y=             -1.4417    Z=             -0.0015  Tot=              2.6081
 Quadrupole moment (field-independent basis, Debye-Ang):
   XX=            -52.3783   YY=            -51.8960   ZZ=            -64.9470
   XY=              2.0745   XZ=              0.0021   YZ=              0.0041

 ESP charges:
               1
     1  C    0.187129
     2  C    0.322484
     3  C   -0.309326
     4  C   -0.050983
     5  C   -0.154011
     6  C   -0.206900
     7  C    0.307685
     8  C   -0.547556
     9  H    0.137982
    10  H    0.075172
    11  H    0.101472
    12  H    0.118590
    13  H    0.378514
    14  H    0.193507
    15  N   -0.566315
    16  C   -0.114966
    17  H    0.037240
    18  H    0.037320
    19  H    0.052961
 Sum of ESP charges =   0.00000

 Summary of Natural Population Analysis:

                                       Natural Population
                Natural  -----------------------------------------------
    Atom  No    Charge         Core      Valence    Rydberg      Total
 -----------------------------------------------------------------------
      C    1    0.15592      1.99897     3.82526    0.01985     5.84408
      C    2   -0.09062      1.99900     4.07504    0.01657     6.09062
      C    3   -0.18878      1.99908     4.17273    0.01697     6.18878
      C    4   -0.22885      1.99918     4.21101    0.01867     6.22885
      C    5   -0.21259      1.99919     4.19456    0.01884     6.21259
      C    6   -0.23913      1.99907     4.22342    0.01664     6.23913
      C    7    0.17963      1.99912     3.80101    0.02024     5.82037
      C    8   -0.28889      1.99894     4.27366    0.01629     6.28889
      H    9    0.20493      0.00000     0.79334    0.00173     0.79507
      H   10    0.20320      0.00000     0.79533    0.00147     0.79680
      H   11    0.20317      0.00000     0.79536    0.00147     0.79683
      H   12    0.20522      0.00000     0.79299    0.00179     0.79478
      H   13    0.39880      0.00000     0.59788    0.00332     0.60120
      H   14    0.21672      0.00000     0.78168    0.00160     0.78328
      N   15   -0.55679      1.99926     5.54282    0.01471     7.55679
      C   16   -0.60575      1.99929     4.59759    0.00886     6.60575
      H   17    0.21079      0.00000     0.78737    0.00184     0.78921
      H   18    0.21084      0.00000     0.78732    0.00184     0.78916
      H   19    0.22218      0.00000     0.77669    0.00113     0.77782
 =======================================================================
   * Total *    0.00000     19.99110    49.82506    0.18385    70.00000

 Normal termination of Gaussian 09 at Fri Jul 23 17:38:57 2021.
