 Gaussian 09, Revision D.01,
 Gaussian 09:  ES64L-G09RevD.01 24-Apr-2013

 ----------------------------------------------------------------------
 # opt=rcfc geom=allcheck guess=read freq=noraman b3lyp/6-311+g(d,p) po
 p=(npa,hirshfeld,chelpg,mbs)
 ----------------------------------------------------------------------

 Structure from the checkpoint file:  "C3-alkylindoles3_Movassaghi.chk"
 -------------------
 Title Card Required
 -------------------
 Charge =  0 Multiplicity = 1

 SCF Done:  E(RB3LYP) =  -403.242013885     A.U. after    2 cycles
 SCF Done:  E(RB3LYP) =  -403.242014122     A.U. after    8 cycles
 Optimization completed.
    -- Stationary point found.
 Normal termination of Gaussian 09 at Tue Jan 10 09:27:59 2023.

 ----------------------------------------------------------------------
 #N Geom=AllCheck Guess=TCheck SCRF=Check GenChk RB3LYP/6-311+G(d,p) Fr
 eq
 ----------------------------------------------------------------------

 Structure from the checkpoint file:  "C3-alkylindoles3_Movassaghi.chk"
 -------------------
 Title Card Required
 -------------------
 Charge =  0 Multiplicity = 1

                         Standard orientation:
 ---------------------------------------------------------------------
 Center     Atomic      Atomic             Coordinates (Angstroms)
 Number     Number       Type             X           Y           Z
 ---------------------------------------------------------------------
      1          6           0       -0.404827    0.907096   -0.000002
      2          6           0        0.173323   -0.390753   -0.000002
      3          6           0       -0.674341   -1.510299   -0.000001
      4          6           0       -2.048359   -1.316750    0.000001
      5          6           0       -2.599054   -0.020352    0.000001
      6          6           0       -1.787391    1.106399   -0.000001
      7          6           0        1.836365    1.124329    0.000001
      8          6           0        1.606119   -0.225747   -0.000001
      9          1           0       -0.261698   -2.513422   -0.000001
     10          1           0       -2.712358   -2.173740    0.000004
     11          1           0       -3.676456    0.100126    0.000002
     12          1           0       -2.214986    2.103261   -0.000002
     13          1           0        0.538038    2.814452    0.000011
     14          1           0        2.773462    1.660139    0.000002
     15          7           0        0.633761    1.813480   -0.000001
     16          6           0        2.632018   -1.317024    0.000001
     17          1           0        2.535166   -1.960348    0.881192
     18          1           0        2.535183   -1.960337   -0.881200
     19          1           0        3.644210   -0.905880    0.000013
 ---------------------------------------------------------------------

 SCF Done:  E(RB3LYP) =  -403.242014122     A.U. after    1 cycles

 The electronic state is 1-A.
 Alpha  occ. eigenvalues --  -14.35667 -10.20477 -10.20147 -10.17360 -10.16918
 Alpha  occ. eigenvalues --  -10.16886 -10.16839 -10.16770 -10.16718 -10.16353
 Alpha  occ. eigenvalues --   -0.98136  -0.84171  -0.79887  -0.73847  -0.73035
 Alpha  occ. eigenvalues --   -0.69378  -0.62478  -0.59445  -0.56170  -0.53982
 Alpha  occ. eigenvalues --   -0.48697  -0.47377  -0.44277  -0.43333  -0.43262
 Alpha  occ. eigenvalues --   -0.41489  -0.40105  -0.39476  -0.38043  -0.35412
 Alpha  occ. eigenvalues --   -0.33737  -0.33633  -0.27554  -0.22683  -0.20680
 Alpha virt. eigenvalues --   -0.02145  -0.00339   0.00993   0.01333   0.01544
 Alpha virt. eigenvalues --    0.03356   0.03421   0.04196   0.05025   0.05739
 Alpha virt. eigenvalues --    0.05955   0.06186   0.07594   0.08023   0.08778

 Mulliken charges:
               1
     1  C   -0.941078
     2  C    2.084214
     3  C   -1.255671
     4  C    0.019760
     5  C   -0.379305
     6  C   -0.085235
     7  C   -0.227590
     8  C    0.238432
     9  H    0.117670
    10  H    0.118386
    11  H    0.120236
    12  H    0.104859
    13  H    0.287819
    14  H    0.108591
    15  N   -0.127094
    16  C   -0.622243
    17  H    0.151797
    18  H    0.151798
    19  H    0.134654
 Sum of Mulliken charges =   0.00000

 Dipole moment (field-independent basis, Debye):
    X=              0.9695    Y=              1.7581    Z=              0.0000  Tot=              2.0077
 Quadrupole moment (field-independent basis, Debye-Ang):
   XX=            -54.9201   YY=            -49.0142   ZZ=            -64.9882
   XY=              0.8130   XZ=              0.0000   YZ=              0.0001

  Exact polarizability: 148.261   6.481 122.240   0.000  -0.001  65.103
 Approx polarizability: 226.993  18.377 211.024   0.000   0.000  99.808

 ESP charges:
               1
     1  C    0.221304
     2  C    0.187342
     3  C   -0.259989
     4  C   -0.094957
     5  C   -0.087128
     6  C   -0.240880
     7  C   -0.077664
     8  C   -0.163544
     9  H    0.140632
    10  H    0.080137
    11  H    0.085583
    12  H    0.121186
    13  H    0.368420
    14  H    0.145006
    15  N   -0.491531
    16  C    0.085924
    17  H   -0.008949
    18  H   -0.008949
    19  H   -0.001941
 Sum of ESP charges =   0.00000

 Summary of Natural Population Analysis:

                                       Natural Population
                Natural  -----------------------------------------------
    Atom  No    Charge         Core      Valence    Rydberg      Total
 -----------------------------------------------------------------------
      C    1    0.15813      1.99897     3.82204    0.02086     5.84187
      C    2   -0.09203      1.99893     4.07702    0.01608     6.09203
      C    3   -0.18922      1.99909     4.17303    0.01710     6.18922
      C    4   -0.22858      1.99918     4.21081    0.01859     6.22858
      C    5   -0.20964      1.99919     4.19158    0.01887     6.20964
      C    6   -0.23775      1.99907     4.22167    0.01701     6.23775
      C    7   -0.00944      1.99904     3.98795    0.02245     6.00944
      C    8   -0.10195      1.99899     4.08696    0.01600     6.10195
      H    9    0.20586      0.00000     0.79248    0.00166     0.79414
      H   10    0.20347      0.00000     0.79505    0.00148     0.79653
      H   11    0.20357      0.00000     0.79497    0.00146     0.79643
      H   12    0.20579      0.00000     0.79237    0.00184     0.79421
      H   13    0.40279      0.00000     0.59487    0.00234     0.59721
      H   14    0.20366      0.00000     0.79478    0.00156     0.79634
      N   15   -0.55041      1.99932     5.53631    0.01479     7.55041
      C   16   -0.58571      1.99931     4.57715    0.00925     6.58571
      H   17    0.20735      0.00000     0.79095    0.00170     0.79265
      H   18    0.20735      0.00000     0.79095    0.00170     0.79265
      H   19    0.20677      0.00000     0.79188    0.00135     0.79323
 =======================================================================
   * Total *    0.00000     19.99108    49.82282    0.18610    70.00000

                      1                      2                      3
                      A                      A                      A
 Frequencies --    142.5208               152.6431               224.2957
 Red. masses --      1.0668                 3.1742                 3.5108
 Frc consts  --      0.0128                 0.0436                 0.1041
 IR Inten    --      0.1235                 4.6250                 8.4876

                      4                      5                      6
                      A                      A                      A
 Frequencies --    224.8830               283.5667               373.0771
 Red. masses --      2.9111                 3.5505                 1.3300
 Frc consts  --      0.0867                 0.1682                 0.1091
 IR Inten    --      0.5430                12.0317                75.0260

                      7                      8                      9
                      A                      A                      A
 Frequencies --    429.7690               469.9765               538.2256
 Red. masses --      2.8344                 3.4149                 5.2729
 Frc consts  --      0.3084                 0.4444                 0.9000
 IR Inten    --      3.4215                 3.0687                 2.0260

                     10                     11                     12
                      A                      A                      A
 Frequencies --    569.8163               585.2248               615.0383
 Red. masses --      5.8267                 3.2317                 2.6214
 Frc consts  --      1.1147                 0.6521                 0.5842
 IR Inten    --      1.8473                 5.4842                 0.8797

                     13                     14                     15
                      A                      A                      A
 Frequencies --    717.3741               749.0741               768.9735
 Red. masses --      5.2539                 1.2908                 3.8144
 Frc consts  --      1.5930                 0.4267                 1.3289
 IR Inten    --      0.0533                89.4643                 1.2893

                     16                     17                     18
                      A                      A                      A
 Frequencies --    772.3242               792.9829               853.2920
 Red. masses --      4.8364                 1.3970                 1.4854
 Frc consts  --      1.6997                 0.5176                 0.6372
 IR Inten    --      3.3156                15.3438                 0.3808

                     19                     20                     21
                      A                      A                      A
 Frequencies --    887.9256               938.7118               977.8201
 Red. masses --      5.0723                 1.3574                 1.2689
 Frc consts  --      2.3562                 0.7047                 0.7148
 IR Inten    --      0.1025                 1.3461                 0.0041

                     22                     23                     24
                      A                      A                      A
 Frequencies --    999.0988              1032.8491              1062.5861
 Red. masses --      1.6272                 2.1594                 1.4548
 Frc consts  --      0.9570                 1.3573                 0.9678
 IR Inten    --      5.5842                10.9492                 0.0895

                     25                     26                     27
                      A                      A                      A
 Frequencies --   1089.2265              1105.2843              1147.9750
 Red. masses --      2.4162                 1.8100                 1.5086
 Frc consts  --      1.6890                 1.3028                 1.1714
 IR Inten    --     17.2874                25.6008                 1.2447

                     28                     29                     30
                      A                      A                      A
 Frequencies --   1176.2255              1241.4919              1269.3151
 Red. masses --      1.1421                 2.3745                 1.6576
 Frc consts  --      0.9309                 2.1563                 1.5735
 IR Inten    --      0.8945                11.1931                11.3732

                     31                     32                     33
                      A                      A                      A
 Frequencies --   1318.6540              1364.5011              1371.5646
 Red. masses --      2.3873                 2.4028                 5.0436
 Frc consts  --      2.4458                 2.6358                 5.5902
 IR Inten    --      9.8076                17.5182                14.4552

                     34                     35                     36
                      A                      A                      A
 Frequencies --   1419.8822              1444.7799              1479.4259
 Red. masses --      1.2977                 2.3007                 2.5738
 Frc consts  --      1.5415                 2.8296                 3.3190
 IR Inten    --      1.5698                13.8723                25.7060

                     37                     38                     39
                      A                      A                      A
 Frequencies --   1482.9813              1499.2741              1521.0065
 Red. masses --      1.0420                 1.1320                 2.6890
 Frc consts  --      1.3502                 1.4992                 3.6652
 IR Inten    --      7.8899                 8.8863                 1.4463

                     40                     41                     42
                      A                      A                      A
 Frequencies --   1593.8201              1616.3982              1658.5498
 Red. masses --      5.3231                 5.6030                 6.0314
 Frc consts  --      7.9670                 8.6252                 9.7752
 IR Inten    --      2.7764                 0.1985                 4.0200

                     43                     44                     45
                      A                      A                      A
 Frequencies --   3013.5309              3055.1808              3091.9812
 Red. masses --      1.0373                 1.1005                 1.0990
 Frc consts  --      5.5501                 6.0524                 6.1906
 IR Inten    --     48.2827                21.9520                21.9928

                     46                     47                     48
                      A                      A                      A
 Frequencies --   3159.9283              3166.3916              3176.8290
 Red. masses --      1.0851                 1.0884                 1.0934
 Frc consts  --      6.3840                 6.4291                 6.5015
 IR Inten    --      1.5567                 3.5854                29.7265

                     49                     50                     51
                      A                      A                      A
 Frequencies --   3188.2559              3239.3324              3677.3065
 Red. masses --      1.0969                 1.0967                 1.0803
 Frc consts  --      6.5691                 6.7802                 8.6071
 IR Inten    --     18.3518                 1.5524                74.1562

 - Thermochemistry -
 -------------------
 Temperature   298.150 Kelvin.  Pressure   1.00000 Atm.
 Atom     1 has atomic number  6 and mass  12.00000

 Molecular mass:   131.07350 amu.
 Principal axes and moments of inertia in atomic units:
                           1         2         3
     Eigenvalues --   691.031031427.658362107.51078
           X            0.99963  -0.02727   0.00000
           Y            0.02727   0.99963   0.00000
           Z            0.00000   0.00000   1.00000
 This molecule is an asymmetric top.
 Rotational symmetry number  1.
 Warning -- assumption of classical behavior for rotation
           may cause significant error
 Rotational temperatures (Kelvin)      0.12534     0.06067     0.04110
 Rotational constants (GHZ):           2.61166     1.26413     0.85634
 Zero-point vibrational energy     411103.5 (Joules/Mol)
                                   98.25610 (Kcal/Mol)
 Warning -- explicit consideration of  12 degrees of freedom as
           vibrations may cause significant error
 Vibrational temperatures:    205.06   219.62   322.71   323.56   407.99
          (Kelvin)            536.77   618.34   676.19   774.39   819.84
                              842.01   884.90  1032.14  1077.75  1106.38
                             1111.20  1140.92  1227.70  1277.53  1350.60
                             1406.86  1437.48  1486.04  1528.82  1567.15
                             1590.26  1651.68  1692.32  1786.23  1826.26
                             1897.25  1963.21  1973.37  2042.89  2078.71
                             2128.56  2133.68  2157.12  2188.39  2293.15
                             2325.63  2386.28  4335.79  4395.72  4448.67
                             4546.43  4555.73  4570.74  4587.18  4660.67
                             5290.82

 Zero-point correction=                           0.156581 (Hartree/Particle)
 Thermal correction to Energy=                    0.164703
 Thermal correction to Enthalpy=                  0.165648
 Thermal correction to Gibbs Free Energy=         0.124071
 Sum of electronic and zero-point Energies=           -403.085433
 Sum of electronic and thermal Energies=              -403.077311
 Sum of electronic and thermal Enthalpies=            -403.076367
 Sum of electronic and thermal Free Energies=         -403.117944

                     E (Thermal)             CV                S
                      KCal/Mol        Cal/Mol-Kelvin    Cal/Mol-Kelvin
 Total                  103.353             32.612             87.506
 Electronic               0.000              0.000              0.000
 Translational            0.889              2.981             40.525
 Rotational               0.889              2.981             29.121
 Vibrational            101.575             26.650             17.861
 Vibration     1          0.616              1.911              2.770
 Vibration     2          0.619              1.900              2.639
 Vibration     3          0.649              1.804              1.924
 Vibration     4          0.650              1.803              1.919
 Vibration     5          0.682              1.704              1.512
 Vibration     6          0.744              1.527              1.067
 Vibration     7          0.791              1.405              0.859
 Vibration     8          0.827              1.317              0.738
 Vibration     9          0.893              1.166              0.569
 Vibration    10          0.926              1.097              0.505
 Vibration    11          0.942              1.063              0.476
 Vibration    12          0.975              1.000              0.425

 Optimization completed.
    -- Stationary point found.
 Normal termination of Gaussian 09 at Tue Jan 10 09:30:06 2023.
