 Gaussian 09, Revision D.01,
 Gaussian 09:  ES64L-G09RevD.01 24-Apr-2013

 ----------------------------------------------------------------------
 # opt=rcfc geom=allcheck guess=read freq=noraman b3lyp/6-311+g(d,p) po
 p=(npa,hirshfeld,chelpg,mbs)
 ----------------------------------------------------------------------

 Structure from the checkpoint file:  "C3-alkylindoles4_Movassaghi.chk"
 -------------------
 Title Card Required
 -------------------
 Charge =  0 Multiplicity = 1

 SCF Done:  E(RB3LYP) =  -517.802642171     A.U. after    2 cycles
 Optimization completed.
    -- Stationary point found.
 Normal termination of Gaussian 09 at Tue Jan 10 09:28:58 2023.

 ----------------------------------------------------------------------
 #N Geom=AllCheck Guess=TCheck SCRF=Check GenChk RB3LYP/6-311+G(d,p) Fr
 eq
 ----------------------------------------------------------------------

 Structure from the checkpoint file:  "C3-alkylindoles4_Movassaghi.chk"
 -------------------
 Title Card Required
 -------------------
 Charge =  0 Multiplicity = 1

                         Standard orientation:
 ---------------------------------------------------------------------
 Center     Atomic      Atomic             Coordinates (Angstroms)
 Number     Number       Type             X           Y           Z
 ---------------------------------------------------------------------
      1          6           0       -1.503770    0.853671    0.000039
      2          6           0       -0.638458   -0.271775    0.000103
      3          6           0       -1.199788   -1.559066    0.000119
      4          6           0       -2.580795   -1.692521   -0.000048
      5          6           0       -3.419882   -0.561228   -0.000207
      6          6           0       -2.894753    0.724081   -0.000150
      7          6           0        0.624760    1.590864    0.000106
      8          6           0        0.717446    0.222897    0.000154
      9          1           0       -0.564039   -2.437783    0.000251
     10          1           0       -3.025227   -2.681278   -0.000056
     11          1           0       -4.495523   -0.696397   -0.000355
     12          1           0       -3.543861    1.593116   -0.000220
     13          1           0       -1.033525    2.928455   -0.001367
     14          1           0        1.401054    2.339890    0.000194
     15          7           0       -0.706442    1.977608    0.000327
     16          6           0        1.952341   -0.631845    0.000295
     17          1           0        1.949325   -1.291550    0.876007
     18          1           0        1.948999   -1.292239   -0.874898
     19          6           0        3.259938    0.145284   -0.000277
     20          1           0        3.318543    0.786919    0.889198
     21          1           0        3.318103    0.786329   -0.890199
     22          8           0        4.325575   -0.807874   -0.000215
     23          1           0        5.164410   -0.337906    0.000071
 ---------------------------------------------------------------------

 SCF Done:  E(RB3LYP) =  -517.802642171     A.U. after    1 cycles

 The electronic state is 1-A.
 Alpha  occ. eigenvalues --  -19.12693 -14.35877 -10.22201 -10.20645 -10.20518
 Alpha  occ. eigenvalues --  -10.17502 -10.17355 -10.17218 -10.17043 -10.16978
 Alpha  occ. eigenvalues --  -10.16967 -10.16470  -1.02723  -0.98373  -0.84344
 Alpha  occ. eigenvalues --   -0.80891  -0.75310  -0.73865  -0.71429  -0.63993
 Alpha  occ. eigenvalues --   -0.62674  -0.59241  -0.56113  -0.54554  -0.51671
 Alpha  occ. eigenvalues --   -0.48546  -0.47896  -0.47554  -0.44119  -0.43371
 Alpha  occ. eigenvalues --   -0.42669  -0.41840  -0.39281  -0.38937  -0.37956
 Alpha  occ. eigenvalues --   -0.36080  -0.34375  -0.33904  -0.33197  -0.28392
 Alpha  occ. eigenvalues --   -0.27666  -0.22851  -0.20921
 Alpha virt. eigenvalues --   -0.02320  -0.00844  -0.00236   0.01229   0.01233
 Alpha virt. eigenvalues --    0.02343   0.02912   0.03588   0.03742   0.05178
 Alpha virt. eigenvalues --    0.05390   0.05706   0.06724   0.07001   0.07510

 Mulliken charges:
               1
     1  C   -0.770326
     2  C    1.812658
     3  C   -0.962147
     4  C   -0.281536
     5  C   -0.311851
     6  C   -0.191395
     7  C   -0.216060
     8  C    0.814047
     9  H    0.122870
    10  H    0.119896
    11  H    0.120761
    12  H    0.104610
    13  H    0.289835
    14  H    0.110123
    15  N   -0.124046
    16  C   -0.938794
    17  H    0.168663
    18  H    0.168615
    19  C   -0.245988
    20  H    0.136557
    21  H    0.136590
    22  O   -0.297344
    23  H    0.234261
 Sum of Mulliken charges =   0.00000

 Dipole moment (field-independent basis, Debye):
    X=              0.5384    Y=              3.4952    Z=             -0.0018  Tot=              3.5364
 Quadrupole moment (field-independent basis, Debye-Ang):
   XX=            -63.6433   YY=            -62.6349   ZZ=            -76.9000
   XY=              5.0954   XZ=              0.0065   YZ=             -0.0090

  Exact polarizability: 170.422  10.829 138.052   0.007  -0.003  76.840
 Approx polarizability: 239.736  18.874 241.335   0.012   0.000 118.870

 ESP charges:
               1
     1  C    0.186269
     2  C    0.233056
     3  C   -0.263649
     4  C   -0.093417
     5  C   -0.114960
     6  C   -0.214345
     7  C   -0.067259
     8  C   -0.303557
     9  H    0.132443
    10  H    0.088649
    11  H    0.095439
    12  H    0.117138
    13  H    0.352516
    14  H    0.131238
    15  N   -0.442059
    16  C    0.251435
    17  H   -0.016075
    18  H   -0.016204
    19  C    0.371498
    20  H   -0.056540
    21  H   -0.056458
    22  O   -0.737471
    23  H    0.422315
 Sum of ESP charges =   0.00000

 Summary of Natural Population Analysis:

                                       Natural Population
                Natural  -----------------------------------------------
    Atom  No    Charge         Core      Valence    Rydberg      Total
 -----------------------------------------------------------------------
      C    1    0.15788      1.99897     3.82202    0.02113     5.84212
      C    2   -0.08908      1.99894     4.07373    0.01641     6.08908
      C    3   -0.18808      1.99908     4.17175    0.01725     6.18808
      C    4   -0.22739      1.99918     4.20971    0.01850     6.22739
      C    5   -0.20820      1.99919     4.19022    0.01879     6.20820
      C    6   -0.23752      1.99907     4.22144    0.01701     6.23752
      C    7   -0.01796      1.99905     3.99675    0.02216     6.01796
      C    8   -0.09458      1.99898     4.07866    0.01694     6.09458
      H    9    0.20765      0.00000     0.79061    0.00174     0.79235
      H   10    0.20413      0.00000     0.79439    0.00149     0.79587
      H   11    0.20390      0.00000     0.79464    0.00145     0.79610
      H   12    0.20597      0.00000     0.79217    0.00186     0.79403
      H   13    0.40287      0.00000     0.59482    0.00231     0.59713
      H   14    0.20401      0.00000     0.79417    0.00182     0.79599
      N   15   -0.55008      1.99932     5.53538    0.01538     7.55008
      C   16   -0.41482      1.99920     4.39901    0.01661     6.41482
      H   17    0.21563      0.00000     0.78198    0.00239     0.78437
      H   18    0.21563      0.00000     0.78198    0.00239     0.78437
      C   19   -0.01704      1.99922     3.99833    0.01948     6.01704
      H   20    0.15455      0.00000     0.84283    0.00262     0.84545
      H   21    0.15455      0.00000     0.84283    0.00262     0.84545
      O   22   -0.73970      1.99978     6.72695    0.01296     8.73970
      H   23    0.45766      0.00000     0.53746    0.00487     0.54234
 =======================================================================
   * Total *    0.00000     23.98999    61.77183    0.23818    86.00000

                      1                      2                      3
                      A                      A                      A
 Frequencies --     29.9019                85.3082               106.5815
 Red. masses --      2.3184                 3.3458                 5.0238
 Frc consts  --      0.0012                 0.0143                 0.0336
 IR Inten    --      3.2936                 4.5507                 0.5879

                      4                      5                      6
                      A                      A                      A
 Frequencies --    167.5502               218.0306               227.3623
 Red. masses --      3.3642                 3.5877                 1.0768
 Frc consts  --      0.0556                 0.1005                 0.0328
 IR Inten    --      9.3000                 7.2919               113.1584

                      7                      8                      9
                      A                      A                      A
 Frequencies --    263.8796               278.9476               348.1023
 Red. masses --      4.2553                 3.2963                 5.6226
 Frc consts  --      0.1746                 0.1511                 0.4014
 IR Inten    --      0.7654                21.3303                 8.7262

                     10                     11                     12
                      A                      A                      A
 Frequencies --    369.5485               428.3083               482.4127
 Red. masses --      1.3717                 2.8446                 3.9830
 Frc consts  --      0.1104                 0.3075                 0.5461
 IR Inten    --     69.5580                 3.8330                12.0180

                     13                     14                     15
                      A                      A                      A
 Frequencies --    568.4835               583.7938               613.5847
 Red. masses --      6.3239                 3.2274                 2.6838
 Frc consts  --      1.2041                 0.6481                 0.5953
 IR Inten    --      2.9257                 5.4271                 0.9157

                     16                     17                     18
                      A                      A                      A
 Frequencies --    617.3921               748.8863               753.9355
 Red. masses --      6.4746                 1.2832                 4.7245
 Frc consts  --      1.4541                 0.4240                 1.5823
 IR Inten    --      6.9287                86.4866                10.1778

                     19                     20                     21
                      A                      A                      A
 Frequencies --    762.6828               785.5351               793.3001
 Red. masses --      2.5219                 1.4798                 4.8445
 Frc consts  --      0.8643                 0.5380                 1.7963
 IR Inten    --      0.1177                14.2629                 2.6626

                     22                     23                     24
                      A                      A                      A
 Frequencies --    819.6051               854.4261               889.5288
 Red. masses --      1.3077                 1.5125                 5.0686
 Frc consts  --      0.5176                 0.6506                 2.3630
 IR Inten    --      2.2738                 0.1881                 0.1165

                     25                     26                     27
                      A                      A                      A
 Frequencies --    939.3943               978.5165              1004.4675
 Red. masses --      1.3593                 1.2718                 3.2247
 Frc consts  --      0.7067                 0.7175                 1.9170
 IR Inten    --      1.1909                 0.0004                 2.8525

                     28                     29                     30
                      A                      A                      A
 Frequencies --   1032.0798              1050.8163              1077.1555
 Red. masses --      2.1387                 5.1707                 2.7393
 Frc consts  --      1.3422                 3.3639                 1.8726
 IR Inten    --      8.4013               140.4962                11.6088

                     31                     32                     33
                      A                      A                      A
 Frequencies --   1091.6196              1112.1442              1144.4380
 Red. masses --      1.5921                 1.6571                 1.5267
 Frc consts  --      1.1178                 1.2076                 1.1781
 IR Inten    --      0.3367                28.8116                 1.6071

                     34                     35                     36
                      A                      A                      A
 Frequencies --   1174.1833              1226.9021              1234.8080
 Red. masses --      1.1371                 1.3464                 1.1670
 Frc consts  --      0.9237                 1.1941                 1.0484
 IR Inten    --      2.9208                59.3115                 1.0812

                     37                     38                     39
                      A                      A                      A
 Frequencies --   1240.4934              1265.8883              1312.9654
 Red. masses --      2.1843                 1.6380                 1.0914
 Frc consts  --      1.9804                 1.5465                 1.1085
 IR Inten    --      3.3491                 1.0621                 0.7939

                     40                     41                     42
                      A                      A                      A
 Frequencies --   1314.4496              1329.3873              1368.2515
 Red. masses --      1.8014                 2.1011                 4.3307
 Frc consts  --      1.8338                 2.1878                 4.7769
 IR Inten    --      4.1581                 9.3742                23.5859

                     43                     44                     45
                      A                      A                      A
 Frequencies --   1386.0953              1442.4681              1455.0714
 Red. masses --      2.2203                 1.8572                 1.8348
 Frc consts  --      2.5133                 2.2768                 2.2888
 IR Inten    --      7.5775                21.6514                 2.7063

                     46                     47                     48
                      A                      A                      A
 Frequencies --   1480.7954              1492.8488              1520.7001
 Red. masses --      2.5274                 1.0970                 2.8686
 Frc consts  --      3.2652                 1.4405                 3.9084
 IR Inten    --     22.3884                 2.1320                 3.3366

                     49                     50                     51
                      A                      A                      A
 Frequencies --   1527.7935              1590.6661              1614.2488
 Red. masses --      1.0870                 5.3143                 5.7611
 Frc consts  --      1.4949                 7.9223                 8.8450
 IR Inten    --      3.1595                 2.4698                 0.3672

                     52                     53                     54
                      A                      A                      A
 Frequencies --   1657.8342              2979.6350              3007.1127
 Red. masses --      6.0175                 1.0542                 1.1062
 Frc consts  --      9.7442                 5.5142                 5.8938
 IR Inten    --      3.3635                42.1425                26.6326

                     55                     56                     57
                      A                      A                      A
 Frequencies --   3015.9439              3045.6611              3160.4234
 Red. masses --      1.0586                 1.1046                 1.0854
 Frc consts  --      5.6735                 6.0371                 6.3874
 IR Inten    --     26.1604                36.1250                 1.9511

                     58                     59                     60
                      A                      A                      A
 Frequencies --   3166.5694              3177.1827              3188.9188
 Red. masses --      1.0884                 1.0933                 1.0968
 Frc consts  --      6.4301                 6.5027                 6.5717
 IR Inten    --      3.5494                27.2593                18.6021

                     61                     62                     63
                      A                      A                      A
 Frequencies --   3246.8765              3677.4561              3848.0771
 Red. masses --      1.0961                 1.0803                 1.0668
 Frc consts  --      6.8084                 8.6081                 9.3074
 IR Inten    --      1.5701                74.3590                37.6840

 - Thermochemistry -
 -------------------
 Temperature   298.150 Kelvin.  Pressure   1.00000 Atm.
 Atom     1 has atomic number  6 and mass  12.00000

 Molecular mass:   161.08406 amu.
 Principal axes and moments of inertia in atomic units:
                           1         2         3
     Eigenvalues --   795.374333449.422484222.36800
           X            0.99997   0.00753   0.00000
           Y           -0.00753   0.99997  -0.00002
           Z            0.00000   0.00002   1.00000
 This molecule is an asymmetric top.
 Rotational symmetry number  1.
 Warning -- assumption of classical behavior for rotation
           may cause significant error
 Rotational temperatures (Kelvin)      0.10890     0.02511     0.02051
 Rotational constants (GHZ):           2.26905     0.52320     0.42742
 Zero-point vibrational energy     498707.8 (Joules/Mol)
                                  119.19401 (Kcal/Mol)
 Warning -- explicit consideration of  16 degrees of freedom as
           vibrations may cause significant error
 Vibrational temperatures:     43.02   122.74   153.35   241.07   313.70
          (Kelvin)            327.12   379.66   401.34   500.84   531.70
                              616.24   694.08   817.92   839.95   882.81
                              888.29  1077.48  1084.74  1097.33  1130.21
                             1141.38  1179.23  1229.33  1279.83  1351.58
                             1407.87  1445.20  1484.93  1511.89  1549.78
                             1570.60  1600.13  1646.59  1689.39  1765.24
                             1776.61  1784.79  1821.33  1889.06  1891.20
                             1912.69  1968.61  1994.28  2075.39  2093.52
                             2130.53  2147.87  2187.95  2198.15  2288.61
                             2322.54  2385.25  4287.02  4326.56  4339.27
                             4382.02  4547.14  4555.98  4571.25  4588.14
                             4671.53  5291.03  5536.52

 Zero-point correction=                           0.189948 (Hartree/Particle)
 Thermal correction to Energy=                    0.200677
 Thermal correction to Enthalpy=                  0.201621
 Thermal correction to Gibbs Free Energy=         0.152749
 Sum of electronic and zero-point Energies=           -517.612694
 Sum of electronic and thermal Energies=              -517.601965
 Sum of electronic and thermal Enthalpies=            -517.601021
 Sum of electronic and thermal Free Energies=         -517.649893

                     E (Thermal)             CV                S
                      KCal/Mol        Cal/Mol-Kelvin    Cal/Mol-Kelvin
 Total                  125.927             41.188            102.861
 Electronic               0.000              0.000              0.000
 Translational            0.889              2.981             41.139
 Rotational               0.889              2.981             30.828
 Vibrational            124.149             35.226             30.894
 Vibration     1          0.594              1.984              5.836
 Vibration     2          0.601              1.959              3.765
 Vibration     3          0.605              1.944              3.330
 Vibration     4          0.624              1.882              2.463
 Vibration     5          0.646              1.814              1.975
 Vibration     6          0.651              1.799              1.900
 Vibration     7          0.670              1.739              1.636
 Vibration     8          0.679              1.712              1.540
 Vibration     9          0.726              1.579              1.175
 Vibration    10          0.742              1.535              1.082
 Vibration    11          0.790              1.409              0.864
 Vibration    12          0.839              1.289              0.704
 Vibration    13          0.924              1.099              0.507
 Vibration    14          0.941              1.066              0.478
 Vibration    15          0.973              1.003              0.427
 Vibration    16          0.977              0.995              0.421

 Optimization completed.
    -- Stationary point found.
 Normal termination of Gaussian 09 at Tue Jan 10 09:33:55 2023.
