 Gaussian 09, Revision D.01,
 Gaussian 09:  ES64L-G09RevD.01 24-Apr-2013

 ----------------------------------------------------------------------
 # opt freq=noraman b3lyp/6-311+g(d,p) geom=connectivity pop=(hirshfeld
 ,npa,mbs,chelpg)
 ----------------------------------------------------------------------

 -------------------
 Title Card Required
 -------------------
 Symbolic Z-matrix:
 Charge =  0 Multiplicity = 1

 SCF Done:  E(RB3LYP) =  -709.778779496     A.U. after   15 cycles
 SCF Done:  E(RB3LYP) =  -709.808189453     A.U. after   15 cycles
 SCF Done:  E(RB3LYP) =  -709.814265027     A.U. after   15 cycles
 SCF Done:  E(RB3LYP) =  -709.823863814     A.U. after   15 cycles
 SCF Done:  E(RB3LYP) =  -709.834809508     A.U. after   15 cycles
 SCF Done:  E(RB3LYP) =  -709.837729090     A.U. after   15 cycles
 SCF Done:  E(RB3LYP) =  -709.841199587     A.U. after   14 cycles
 SCF Done:  E(RB3LYP) =  -709.842150182     A.U. after   12 cycles
 SCF Done:  E(RB3LYP) =  -709.842148478     A.U. after   12 cycles
 SCF Done:  E(RB3LYP) =  -709.842358487     A.U. after   11 cycles
 SCF Done:  E(RB3LYP) =  -709.842366007     A.U. after   10 cycles
 SCF Done:  E(RB3LYP) =  -709.842368989     A.U. after   10 cycles
 SCF Done:  E(RB3LYP) =  -709.842369709     A.U. after    9 cycles
 SCF Done:  E(RB3LYP) =  -709.842369897     A.U. after    8 cycles
 Optimization completed.
    -- Stationary point found.
 Normal termination of Gaussian 09 at Tue Jan 10 17:37:42 2023.

 ----------------------------------------------------------------------
 #N Geom=AllCheck Guess=TCheck SCRF=Check GenChk RB3LYP/6-311+G(d,p) Fr
 eq
 ----------------------------------------------------------------------

 Structure from the checkpoint file:  "BocProc_Smith4.chk"
 -------------------
 Title Card Required
 -------------------
 Charge =  0 Multiplicity = 1

                         Standard orientation:
 ---------------------------------------------------------------------
 Center     Atomic      Atomic             Coordinates (Angstroms)
 Number     Number       Type             X           Y           Z
 ---------------------------------------------------------------------
      1          6           0        2.611720    0.962967    0.000055
      2          6           0        1.713487   -0.131177    0.000076
      3          6           0        2.158657   -1.452634   -0.000028
      4          6           0        3.534990   -1.662053   -0.000108
      5          6           0        4.442145   -0.590728   -0.000177
      6          6           0        3.990989    0.722743   -0.000087
      7          6           0        1.819638    2.169163    0.000162
      8          6           0        0.513227    1.805877    0.000097
      9          1           0        1.459736   -2.275386   -0.000043
     10          1           0        3.911544   -2.678621   -0.000200
     11          1           0        5.507063   -0.793824   -0.000283
     12          1           0        4.692168    1.549932   -0.000082
     13          1           0        2.188689    3.183294    0.000190
     14          1           0       -0.382073    2.401632    0.000041
     15          7           0        0.411271    0.404333   -0.000079
     16          6           0       -0.772717   -0.337441    0.000245
     17          8           0       -0.798113   -1.545844    0.000478
     18          8           0       -1.830978    0.485568    0.000248
     19          6           0       -3.220585   -0.041105   -0.000104
     20          6           0       -3.467837   -0.852442    1.273012
     21          1           0       -4.526014   -1.122191    1.326546
     22          1           0       -2.875378   -1.765911    1.286451
     23          1           0       -3.225650   -0.257823    2.157519
     24          6           0       -3.467172   -0.852775   -1.273126
     25          1           0       -2.874691   -1.766238   -1.286080
     26          1           0       -4.525311   -1.122610   -1.327034
     27          1           0       -3.224656   -0.258387   -2.157693
     28          6           0       -4.052890    1.240501   -0.000488
     29          1           0       -3.838327    1.840366   -0.887620
     30          1           0       -5.116606    0.991520   -0.000586
     31          1           0       -3.838578    1.840745    0.886448
 ---------------------------------------------------------------------

 SCF Done:  E(RB3LYP) =  -709.842369897     A.U. after    1 cycles

 The electronic state is 1-A.
 Alpha  occ. eigenvalues --  -19.17419 -19.11543 -14.38150 -10.34206 -10.25960
 Alpha  occ. eigenvalues --  -10.21422 -10.21300 -10.18133 -10.17573 -10.17569
 Alpha  occ. eigenvalues --  -10.17547 -10.17381 -10.17217 -10.17092 -10.17009
 Alpha  occ. eigenvalues --  -10.17009  -1.12514  -1.03749  -0.99275  -0.85699
 Alpha  occ. eigenvalues --   -0.82877  -0.80016  -0.75076  -0.72908  -0.70914
 Alpha  occ. eigenvalues --   -0.70735  -0.66993  -0.62246  -0.61280  -0.58993
 Alpha  occ. eigenvalues --   -0.55257  -0.52726  -0.49851  -0.49702  -0.48572
 Alpha  occ. eigenvalues --   -0.47728  -0.47113  -0.46053  -0.45104  -0.43612
 Alpha  occ. eigenvalues --   -0.42934  -0.42677  -0.42150  -0.40596  -0.40165
 Alpha  occ. eigenvalues --   -0.39396  -0.38238  -0.37463  -0.36602  -0.36503
 Alpha  occ. eigenvalues --   -0.35376  -0.34589  -0.34146  -0.31806  -0.29423
 Alpha  occ. eigenvalues --   -0.28891  -0.23851  -0.22334
 Alpha virt. eigenvalues --   -0.03617  -0.01408  -0.00399   0.01035   0.01666
 Alpha virt. eigenvalues --    0.02451   0.02482   0.02689   0.02702   0.03844
 Alpha virt. eigenvalues --    0.04463   0.04596   0.04640   0.05480   0.05519

 Mulliken charges:
               1
     1  C    0.889478
     2  C   -0.197796
     3  C   -0.088516
     4  C   -0.564490
     5  C   -0.071124
     6  C   -0.543797
     7  C   -0.401135
     8  C    0.139264
     9  H    0.155509
    10  H    0.125120
    11  H    0.122984
    12  H    0.119686
    13  H    0.121751
    14  H    0.149271
    15  N    0.021439
    16  C    0.170526
    17  O   -0.246854
    18  O    0.041935
    19  C   -0.241534
    20  C   -0.329860
    21  H    0.143280
    22  H    0.184180
    23  H    0.151513
    24  C   -0.329952
    25  H    0.184190
    26  H    0.143287
    27  H    0.151513
    28  C   -0.473579
    29  H    0.159966
    30  H    0.153774
    31  H    0.159970
 Sum of Mulliken charges =   0.00000

 Dipole moment (field-independent basis, Debye):
    X=             -2.3216    Y=              1.5565    Z=             -0.0010  Tot=              2.7951
 Quadrupole moment (field-independent basis, Debye-Ang):
   XX=            -81.4131   YY=            -93.1578   ZZ=            -99.0082
   XY=             -0.1315   XZ=              0.0010   YZ=              0.0018

  Exact polarizability: 231.058  -7.208 169.948  -0.004   0.001 107.996
 Approx polarizability: 317.419  -8.627 286.643  -0.008   0.001 160.582

 ESP charges:
               1
     1  C    0.204866
     2  C    0.147726
     3  C   -0.184911
     4  C   -0.096429
     5  C   -0.089248
     6  C   -0.242013
     7  C   -0.298309
     8  C   -0.036704
     9  H    0.131628
    10  H    0.090205
    11  H    0.089055
    12  H    0.128023
    13  H    0.146081
    14  H    0.130138
    15  N   -0.246943
    16  C    0.818832
    17  O   -0.547281
    18  O   -0.551819
    19  C    0.761799
    20  C   -0.309700
    21  H    0.054293
    22  H    0.079588
    23  H    0.054048
    24  C   -0.308424
    25  H    0.079121
    26  H    0.054033
    27  H    0.053746
    28  C   -0.308928
    29  H    0.070447
    30  H    0.056454
    31  H    0.070623
 Sum of ESP charges =   0.00000

 Summary of Natural Population Analysis:

                                       Natural Population
                Natural  -----------------------------------------------
    Atom  No    Charge         Core      Valence    Rydberg      Total
 -----------------------------------------------------------------------
      C    1   -0.09008      1.99899     4.07436    0.01673     6.09008
      C    2    0.17107      1.99893     3.81117    0.01882     5.82893
      C    3   -0.21938      1.99906     4.20379    0.01653     6.21938
      C    4   -0.20283      1.99918     4.18580    0.01785     6.20283
      C    5   -0.21531      1.99917     4.19787    0.01827     6.21531
      C    6   -0.18911      1.99907     4.17319    0.01685     6.18911
      C    7   -0.25281      1.99907     4.23748    0.01627     6.25281
      C    8    0.00959      1.99915     3.97179    0.01947     5.99041
      H    9    0.24057      0.00000     0.75762    0.00181     0.75943
      H   10    0.20584      0.00000     0.79276    0.00141     0.79416
      H   11    0.20518      0.00000     0.79337    0.00145     0.79482
      H   12    0.20745      0.00000     0.79090    0.00165     0.79255
      H   13    0.22166      0.00000     0.77674    0.00159     0.77834
      H   14    0.22686      0.00000     0.77151    0.00163     0.77314
      N   15   -0.46375      1.99917     5.44719    0.01738     7.46375
      C   16    0.95823      1.99938     2.99395    0.04843     5.04177
      O   17   -0.62520      1.99973     6.61487    0.01060     8.62520
      O   18   -0.59287      1.99969     6.57483    0.01835     8.59287
      C   19    0.27730      1.99910     3.70170    0.02190     5.72270
      C   20   -0.60676      1.99923     4.59624    0.01130     6.60676
      H   21    0.20863      0.00000     0.79013    0.00124     0.79137
      H   22    0.23127      0.00000     0.76724    0.00150     0.76873
      H   23    0.20818      0.00000     0.79044    0.00137     0.79182
      C   24   -0.60678      1.99923     4.59625    0.01130     6.60678
      H   25    0.23127      0.00000     0.76723    0.00150     0.76873
      H   26    0.20864      0.00000     0.79012    0.00124     0.79136
      H   27    0.20818      0.00000     0.79044    0.00137     0.79182
      C   28   -0.58324      1.99923     4.57190    0.01211     6.58324
      H   29    0.21015      0.00000     0.78844    0.00142     0.78985
      H   30    0.20789      0.00000     0.79096    0.00115     0.79211
      H   31    0.21015      0.00000     0.78843    0.00142     0.78985
 =======================================================================
   * Total *    0.00000     31.98740    83.69869    0.31391   116.00000

                      1                      2                      3
                      A                      A                      A
 Frequencies --     36.9948                41.1970                97.5874
 Red. masses --      3.5091                 4.0779                 4.2196
 Frc consts  --      0.0028                 0.0041                 0.0237
 IR Inten    --      0.0902                 1.2853                 0.7425

                      4                      5                      6
                      A                      A                      A
 Frequencies --    109.3787               113.6470               200.7190
 Red. masses --      5.0788                 3.8867                 1.1223
 Frc consts  --      0.0358                 0.0296                 0.0266
 IR Inten    --      0.8461                 0.4094                 0.2499

                      7                      8                      9
                      A                      A                      A
 Frequencies --    221.4407               221.9082               234.7082
 Red. masses --      3.3787                 4.0335                 3.6997
 Frc consts  --      0.0976                 0.1170                 0.1201
 IR Inten    --      1.4053                 4.1517                 6.5794

                     10                     11                     12
                      A                      A                      A
 Frequencies --    246.8799               266.6218               271.8886
 Red. masses --      1.1425                 3.6984                 1.1359
 Frc consts  --      0.0410                 0.1549                 0.0495
 IR Inten    --      0.0231                 0.1116                 0.0024

                     13                     14                     15
                      A                      A                      A
 Frequencies --    330.0544               351.7775               409.8709
 Red. masses --      3.2378                 2.5464                 3.8694
 Frc consts  --      0.2078                 0.1857                 0.3830
 IR Inten    --     10.9809                 1.4358                 1.3198

                     16                     17                     18
                      A                      A                      A
 Frequencies --    428.9727               429.1256               457.4831
 Red. masses --      3.2899                 3.0158                 2.9108
 Frc consts  --      0.3567                 0.3272                 0.3589
 IR Inten    --      0.2856                 6.4429                 2.2480

                     19                     20                     21
                      A                      A                      A
 Frequencies --    473.4374               519.9514               576.0985
 Red. masses --      2.7920                 5.3299                 3.7728
 Frc consts  --      0.3687                 0.8490                 0.7377
 IR Inten    --      8.3357                 2.1833                 0.0085

                     22                     23                     24
                      A                      A                      A
 Frequencies --    590.2054               596.7886               645.2522
 Red. masses --      5.6725                 3.4899                 6.5074
 Frc consts  --      1.1642                 0.7323                 1.5963
 IR Inten    --     14.5153                 1.0844                 3.2956

                     25                     26                     27
                      A                      A                      A
 Frequencies --    731.5387               750.7543               759.0297
 Red. masses --      1.5549                 4.9286                 1.3983
 Frc consts  --      0.4903                 1.6367                 0.4746
 IR Inten    --     21.2118                 3.7637                39.4757

                     28                     29                     30
                      A                      A                      A
 Frequencies --    776.0322               784.4959               785.0555
 Red. masses --      5.2384                 5.1557                 2.8824
 Frc consts  --      1.8587                 1.8695                 1.0466
 IR Inten    --     66.3300                23.6709                11.0690

                     31                     32                     33
                      A                      A                      A
 Frequencies --    836.1942               855.6065               876.1535
 Red. masses --      5.1166                 4.7917                 1.4075
 Frc consts  --      2.1079                 2.0667                 0.6366
 IR Inten    --      1.7399                21.4557                 0.0696

                     34                     35                     36
                      A                      A                      A
 Frequencies --    895.2629               896.3372               925.5762
 Red. masses --      4.5297                 1.3322                 1.6366
 Frc consts  --      2.1391                 0.6306                 0.8261
 IR Inten    --      9.4795                 1.3411                 0.0378

                     37                     38                     39
                      A                      A                      A
 Frequencies --    927.7090               958.7897               973.3914
 Red. masses --      1.6285                 1.3622                 1.2007
 Frc consts  --      0.8258                 0.7378                 0.6703
 IR Inten    --      0.5058                 2.5978                 0.0747

                     40                     41                     42
                      A                      A                      A
 Frequencies --    991.9056              1035.6729              1037.8503
 Red. masses --      1.2715                 3.2716                 2.0130
 Frc consts  --      0.7371                 2.0675                 1.2775
 IR Inten    --      0.1614               175.8641                 3.5524

                     43                     44                     45
                      A                      A                      A
 Frequencies --   1053.4000              1060.4368              1099.0645
 Red. masses --      1.4122                 1.5321                 1.5820
 Frc consts  --      0.9233                 1.0151                 1.1259
 IR Inten    --      0.6938                26.2439                69.6429

                     46                     47                     48
                      A                      A                      A
 Frequencies --   1139.0881              1175.9582              1182.0128
 Red. masses --      1.5624                 1.2747                 1.9032
 Frc consts  --      1.1944                 1.0386                 1.5667
 IR Inten    --    154.3797                67.6331               317.6965

                     49                     50                     51
                      A                      A                      A
 Frequencies --   1199.7964              1229.2091              1265.7979
 Red. masses --      2.0362                 2.4989                 3.5473
 Frc consts  --      1.7270                 2.2246                 3.3487
 IR Inten    --     67.8179                79.4120               190.7359

                     52                     53                     54
                      A                      A                      A
 Frequencies --   1266.5759              1280.9326              1320.9899
 Red. masses --      2.7485                 2.8173                 2.2048
 Frc consts  --      2.5978                 2.7236                 2.2669
 IR Inten    --     15.6803                18.6366                 6.5613

                     55                     56                     57
                      A                      A                      A
 Frequencies --   1356.3456              1367.2771              1403.6214
 Red. masses --      3.0624                 4.7653                 1.2652
 Frc consts  --      3.3194                 5.2487                 1.4687
 IR Inten    --    277.9395               357.8504                22.1947

                     58                     59                     60
                      A                      A                      A
 Frequencies --   1404.7396              1406.5317              1431.7290
 Red. masses --      1.9388                 1.9538                 1.2330
 Frc consts  --      2.2541                 2.2774                 1.4892
 IR Inten    --     45.6054                84.2778                21.2451

                     61                     62                     63
                      A                      A                      A
 Frequencies --   1471.9620              1478.0248              1490.8135
 Red. masses --      1.0445                 2.5440                 1.0458
 Frc consts  --      1.3333                 3.2744                 1.3695
 IR Inten    --      0.3916               109.2768                 0.1262

                     64                     65                     66
                      A                      A                      A
 Frequencies --   1491.9323              1498.5937              1503.2701
 Red. masses --      1.0488                 1.0904                 2.6182
 Frc consts  --      1.3754                 1.4428                 3.4859
 IR Inten    --      0.6906                18.5676                 9.3709

                     67                     68                     69
                      A                      A                      A
 Frequencies --   1504.6015              1526.3971              1570.2005
 Red. masses --      1.0550                 1.0559                 4.9020
 Frc consts  --      1.4072                 1.4495                 7.1209
 IR Inten    --      2.9168                24.7403                29.4279

                     70                     71                     72
                      A                      A                      A
 Frequencies --   1620.2525              1645.4857              1773.8477
 Red. masses --      6.3561                 6.7114                11.8891
 Frc consts  --      9.8313                10.7066                22.0410
 IR Inten    --      5.7938                 5.2090               279.4518

                     73                     74                     75
                      A                      A                      A
 Frequencies --   3035.7455              3036.4082              3044.0725
 Red. masses --      1.0355                 1.0377                 1.0376
 Frc consts  --      5.6223                 5.6372                 5.6651
 IR Inten    --      8.0193                21.6158                22.2547

                     76                     77                     78
                      A                      A                      A
 Frequencies --   3095.9613              3097.8702              3110.8340
 Red. masses --      1.1019                 1.1018                 1.1029
 Frc consts  --      6.2227                 6.2298                 6.2886
 IR Inten    --      6.6078                16.2210                26.9612

                     79                     80                     81
                      A                      A                      A
 Frequencies --   3111.5809              3138.6059              3141.6775
 Red. masses --      1.1017                 1.0999                 1.0993
 Frc consts  --      6.2845                 6.3839                 6.3929
 IR Inten    --     45.8084                 0.4503                12.3138

                     82                     83                     84
                      A                      A                      A
 Frequencies --   3164.3656              3175.7916              3187.9988
 Red. masses --      1.0858                 1.0907                 1.0960
 Frc consts  --      6.4061                 6.4814                 6.5627
 IR Inten    --      0.8150                16.1506                22.8813

                     85                     86                     87
                      A                      A                      A
 Frequencies --   3236.7139              3237.7342              3290.7965
 Red. masses --      1.0930                 1.0943                 1.1000
 Frc consts  --      6.7466                 6.7585                 7.0183
 IR Inten    --      1.6138                 3.8162                 4.6089

 - Thermochemistry -
 -------------------
 Temperature   298.150 Kelvin.  Pressure   1.00000 Atm.
 Atom     1 has atomic number  6 and mass  12.00000

 Molecular mass:   217.11028 amu.
 Principal axes and moments of inertia in atomic units:
                           1         2         3
     Eigenvalues --  1294.499076224.531287113.71860
           X            1.00000  -0.00148   0.00000
           Y            0.00148   1.00000   0.00000
           Z            0.00000   0.00000   1.00000
 This molecule is an asymmetric top.
 Rotational symmetry number  1.
 Warning -- assumption of classical behavior for rotation
           may cause significant error
 Rotational temperatures (Kelvin)      0.06691     0.01391     0.01218
 Rotational constants (GHZ):           1.39416     0.28994     0.25370
 Zero-point vibrational energy     669875.2 (Joules/Mol)
                                  160.10402 (Kcal/Mol)
 Warning -- explicit consideration of  23 degrees of freedom as
           vibrations may cause significant error
 Vibrational temperatures:     53.23    59.27   140.41   157.37   163.51
          (Kelvin)            288.79   318.60   319.28   337.69   355.20
                              383.61   391.19   474.87   506.13   589.71
                              617.20   617.42   658.22   681.17   748.09
                              828.88   849.17   858.64   928.37  1052.52
                             1080.17  1092.07  1116.54  1128.71  1129.52
                             1203.10  1231.03  1260.59  1288.08  1289.63
                             1331.70  1334.76  1379.48  1400.49  1427.13
                             1490.10  1493.23  1515.61  1525.73  1581.31
                             1638.89  1691.94  1700.65  1726.24  1768.56
                             1821.20  1822.32  1842.97  1900.61  1951.48
                             1967.20  2019.50  2021.10  2023.68  2059.94
                             2117.82  2126.55  2144.95  2146.56  2156.14
                             2162.87  2164.78  2196.14  2259.17  2331.18
                             2367.48  2552.17  4367.76  4368.71  4379.74
                             4454.39  4457.14  4475.79  4476.87  4515.75
                             4520.17  4552.81  4569.25  4586.81  4656.90
                             4658.37  4734.72

 Zero-point correction=                           0.255142 (Hartree/Particle)
 Thermal correction to Energy=                    0.269786
 Thermal correction to Enthalpy=                  0.270730
 Thermal correction to Gibbs Free Energy=         0.213449
 Sum of electronic and zero-point Energies=           -709.587228
 Sum of electronic and thermal Energies=              -709.572584
 Sum of electronic and thermal Enthalpies=            -709.571640
 Sum of electronic and thermal Free Energies=         -709.628921

                     E (Thermal)             CV                S
                      KCal/Mol        Cal/Mol-Kelvin    Cal/Mol-Kelvin
 Total                  169.293             57.503            120.558
 Electronic               0.000              0.000              0.000
 Translational            0.889              2.981             42.029
 Rotational               0.889              2.981             32.416
 Vibrational            167.516             51.542             46.113
 Vibration     1          0.594              1.982              5.414
 Vibration     2          0.594              1.981              5.201
 Vibration     3          0.603              1.951              3.502
 Vibration     4          0.606              1.942              3.280
 Vibration     5          0.607              1.938              3.206
 Vibration     6          0.638              1.839              2.127
 Vibration     7          0.648              1.808              1.947
 Vibration     8          0.648              1.808              1.943
 Vibration     9          0.655              1.788              1.843
 Vibration    10          0.661              1.768              1.753
 Vibration    11          0.672              1.734              1.618
 Vibration    12          0.675              1.725              1.584
 Vibration    13          0.713              1.615              1.260
 Vibration    14          0.728              1.572              1.158
 Vibration    15          0.774              1.449              0.927
 Vibration    16          0.790              1.407              0.862
 Vibration    17          0.790              1.407              0.862
 Vibration    18          0.816              1.344              0.773
 Vibration    19          0.830              1.309              0.728
 Vibration    20          0.875              1.206              0.610
 Vibration    21          0.933              1.083              0.493
 Vibration    22          0.948              1.053              0.467
 Vibration    23          0.955              1.039              0.455

 Optimization completed.
    -- Stationary point found.
 Normal termination of Gaussian 09 at Tue Jan 10 17:51:29 2023.
