 Gaussian 09, Revision D.01,
 Gaussian 09:  ES64L-G09RevD.01 24-Apr-2013

 ---------------------------------------------------------------------
 # b3lyp/6-311+g(d,p) geom=connectivity pop=(hirshfeld,chelpg,mbs,npa)
 ---------------------------------------------------------------------

 ---------
 Table9_13
 ---------
 Symbolic Z-matrix:
 Charge =  0 Multiplicity = 1

                         Standard orientation:
 ---------------------------------------------------------------------
 Center     Atomic      Atomic             Coordinates (Angstroms)
 Number     Number       Type             X           Y           Z
 ---------------------------------------------------------------------
      1          6           0       -1.606581   -0.655396    0.000106
      2          6           0       -1.636149    0.764398    0.000058
      3          6           0       -2.880243    1.418184   -0.000026
      4          6           0       -4.040012    0.658872   -0.000071
      5          6           0       -3.986930   -0.749924   -0.000019
      6          6           0       -2.774215   -1.424735    0.000081
      7          6           0        0.546378    0.090139    0.000102
      8          6           0       -0.270523    1.202027    0.000073
      9          1           0       -2.930957    2.501699   -0.000071
     10          1           0       -5.005786    1.151406   -0.000155
     11          1           0       -4.911242   -1.316533   -0.000065
     12          1           0       -2.737948   -2.508865    0.000114
     13          1           0        0.038373   -1.987250    0.000123
     14          1           0        0.071006    2.226207    0.000016
     15          7           0       -0.281576   -1.033214    0.000115
     16         14           0        2.427194    0.004297   -0.000038
     17          6           0        3.017204   -0.919833   -1.539710
     18          1           0        4.110215   -0.977429   -1.565253
     19          1           0        2.636106   -1.945539   -1.571188
     20          1           0        2.685357   -0.416562   -2.452222
     21          6           0        3.017664   -0.919245    1.539815
     22          1           0        4.110691   -0.976826    1.564939
     23          1           0        2.686206   -0.415524    2.452223
     24          1           0        2.636563   -1.944923    1.571963
     25          6           0        3.093596    1.766343   -0.000333
     26          1           0        2.766230    2.319423   -0.885100
     27          1           0        2.766434    2.319555    0.884419
     28          1           0        4.187932    1.758515   -0.000473
 ---------------------------------------------------------------------

 SCF Done:  E(RB3LYP) =  -772.656548760     A.U. after   14 cycles

 The electronic state is 1-A.
 Alpha  occ. eigenvalues --  -66.09133 -14.35581 -10.20434 -10.18925 -10.17359
 Alpha  occ. eigenvalues --  -10.16944 -10.16895 -10.16887 -10.16358 -10.16109
 Alpha  occ. eigenvalues --  -10.15233 -10.15233 -10.15194  -5.26402  -3.62258
 Alpha  occ. eigenvalues --   -3.62189  -3.62178  -0.97726  -0.84104  -0.78233
 Alpha  occ. eigenvalues --   -0.73767  -0.72752  -0.70925  -0.68687  -0.68640
 Alpha  occ. eigenvalues --   -0.62232  -0.59174  -0.58241  -0.53983  -0.49015
 Alpha  occ. eigenvalues --   -0.47781  -0.44432  -0.43332  -0.43241  -0.42496
 Alpha  occ. eigenvalues --   -0.42159  -0.41513  -0.41504  -0.40552  -0.39828
 Alpha  occ. eigenvalues --   -0.39730  -0.38994  -0.36231  -0.33997  -0.33818
 Alpha  occ. eigenvalues --   -0.32278  -0.31225  -0.31130  -0.28161  -0.22589
 Alpha  occ. eigenvalues --   -0.21044
 Alpha virt. eigenvalues --   -0.02650  -0.01679   0.00190   0.01106   0.01281
 Alpha virt. eigenvalues --    0.01767   0.02411   0.02802   0.03206   0.04080
 Alpha virt. eigenvalues --    0.04799   0.04840   0.05701   0.05919   0.06350

 Mulliken charges:
               1
     1  C   -0.777368
     2  C    1.434672
     3  C   -0.784329
     4  C   -0.042193
     5  C   -0.244057
     6  C   -0.626071
     7  C   -0.601267
     8  C    0.439073
     9  H    0.114961
    10  H    0.119275
    11  H    0.120567
    12  H    0.103277
    13  H    0.273611
    14  H    0.109456
    15  N    0.011938
    16  Si   1.189197
    17  C   -0.757845
    18  H    0.161648
    19  H    0.155109
    20  H    0.171233
    21  C   -0.757836
    22  H    0.161642
    23  H    0.171229
    24  H    0.155123
    25  C   -0.808067
    26  H    0.170885
    27  H    0.170882
    28  H    0.165255
 Sum of Mulliken charges =   0.00000

 Dipole moment (field-independent basis, Debye):
    X=              1.8107    Y=             -1.1952    Z=             -0.0002  Tot=              2.1695
 Quadrupole moment (field-independent basis, Debye-Ang):
   XX=            -84.3028   YY=            -79.4626   ZZ=            -92.4418
   XY=              0.4644   XZ=              0.0001   YZ=             -0.0007

 ESP charges:
               1
     1  C    0.263957
     2  C    0.207994
     3  C   -0.250583
     4  C   -0.097591
     5  C   -0.086226
     6  C   -0.264095
     7  C   -0.039839
     8  C   -0.363832
     9  H    0.130390
    10  H    0.083941
    11  H    0.087739
    12  H    0.126496
    13  H    0.362302
    14  H    0.153937
    15  N   -0.507305
    16  Si   0.731781
    17  C   -0.377099
    18  H    0.074417
    19  H    0.060440
    20  H    0.054788
    21  C   -0.378606
    22  H    0.074776
    23  H    0.055137
    24  H    0.060998
    25  C   -0.359072
    26  H    0.062901
    27  H    0.062980
    28  H    0.069276
 Sum of ESP charges =   0.00000

 Summary of Natural Population Analysis:

                                       Natural Population
                Natural  -----------------------------------------------
    Atom  No    Charge         Core      Valence    Rydberg      Total
 -----------------------------------------------------------------------
      C    1    0.15588      1.99897     3.82369    0.02146     5.84412
      C    2   -0.10240      1.99899     4.08536    0.01805     6.10240
      C    3   -0.18247      1.99908     4.16626    0.01714     6.18247
      C    4   -0.23031      1.99918     4.21247    0.01867     6.23031
      C    5   -0.20678      1.99919     4.18903    0.01857     6.20678
      C    6   -0.23810      1.99907     4.22247    0.01657     6.23810
      C    7   -0.26052      1.99905     4.22411    0.03737     6.26052
      C    8   -0.26112      1.99902     4.24417    0.01793     6.26112
      H    9    0.20519      0.00000     0.79308    0.00173     0.79481
      H   10    0.20374      0.00000     0.79478    0.00148     0.79626
      H   11    0.20354      0.00000     0.79500    0.00147     0.79646
      H   12    0.20579      0.00000     0.79248    0.00174     0.79421
      H   13    0.39907      0.00000     0.59884    0.00209     0.60093
      H   14    0.21627      0.00000     0.78206    0.00167     0.78373
      N   15   -0.54534      1.99929     5.52983    0.01622     7.54534
     Si   16    1.57384      9.99831     2.39534    0.03252    12.42616
      C   17   -1.06375      1.99933     5.05360    0.01083     7.06375
      H   18    0.22666      0.00000     0.77237    0.00097     0.77334
      H   19    0.22298      0.00000     0.77596    0.00107     0.77702
      H   20    0.23247      0.00000     0.76652    0.00102     0.76753
      C   21   -1.06375      1.99933     5.05359    0.01083     7.06375
      H   22    0.22666      0.00000     0.77237    0.00097     0.77334
      H   23    0.23246      0.00000     0.76652    0.00102     0.76754
      H   24    0.22298      0.00000     0.77595    0.00107     0.77702
      C   25   -1.06579      1.99933     5.05680    0.00966     7.06579
      H   26    0.23190      0.00000     0.76701    0.00109     0.76810
      H   27    0.23189      0.00000     0.76702    0.00109     0.76811
      H   28    0.22903      0.00000     0.77009    0.00088     0.77097
 =======================================================================
   * Total *    0.00000     33.98812    67.74673    0.26515   102.00000

 Normal termination of Gaussian 09 at Fri Jul 23 17:40:06 2021.
