 Gaussian 09, Revision D.01,
 Gaussian 09:  ES64L-G09RevD.01 24-Apr-2013

 ----------------------------------------------------------------------
 # opt=rcfc freq=noraman b3lyp/6-311+g(d,p) geom=allcheck pop=(hirshfel
 d,chelpg,npa,mbs) guess=read
 ----------------------------------------------------------------------

 Structure from the checkpoint file:  "Diketopiperazine7_Gong.chk"
 -------------------
 Title Card Required
 -------------------
 Charge =  0 Multiplicity = 1

 SCF Done:  E(RB3LYP) =  -1184.93852383     A.U. after    1 cycles
 SCF Done:  E(RB3LYP) =  -1184.93852670     A.U. after   11 cycles
 SCF Done:  E(RB3LYP) =  -1184.93853336     A.U. after   12 cycles
 SCF Done:  E(RB3LYP) =  -1184.93852447     A.U. after   12 cycles
 Optimization completed.
    -- Stationary point found.
 Normal termination of Gaussian 09 at Wed Jan 25 09:47:35 2023.

 ----------------------------------------------------------------------
 #N Geom=AllCheck Guess=TCheck SCRF=Check GenChk RB3LYP/6-311+G(d,p) Fr
 eq
 ----------------------------------------------------------------------

 Structure from the checkpoint file:  "Diketopiperazine7_Gong.chk"
 -------------------
 Title Card Required
 -------------------
 Charge =  0 Multiplicity = 1

                         Standard orientation:
 ---------------------------------------------------------------------
 Center     Atomic      Atomic             Coordinates (Angstroms)
 Number     Number       Type             X           Y           Z
 ---------------------------------------------------------------------
      1          6           0       -3.897758   -1.593242    0.471310
      2          6           0       -3.054831   -0.918527   -0.452399
      3          6           0       -3.611403   -0.452082   -1.655611
      4          6           0       -4.961638   -0.656141   -1.900025
      5          6           0       -5.778628   -1.320862   -0.964450
      6          6           0       -5.258303   -1.798564    0.230275
      7          6           0       -1.814278   -1.542429    1.322650
      8          6           0       -1.727236   -0.896184    0.114915
      9          1           0       -2.994129    0.059720   -2.385625
     10          1           0       -5.399082   -0.302528   -2.826928
     11          1           0       -6.830630   -1.464610   -1.182791
     12          1           0       -5.887453   -2.314009    0.947797
     13          1           0       -3.431376   -2.449437    2.362183
     14          1           0       -1.045521   -1.738419    2.053727
     15          7           0       -3.112407   -1.960925    1.542654
     16          6           0       -0.501295   -0.273229   -0.486524
     17          1           0        0.365243   -0.928760   -0.375295
     18          1           0       -0.645489   -0.124922   -1.559163
     19          6           0       -0.087663    1.097062    0.132843
     20          1           0        0.752856    1.477946   -0.452529
     21          6           0       -1.215667    2.118761    0.042048
     22          8           0       -1.788128    2.598478    0.990049
     23          8           0       -1.496811    2.413251   -1.236377
     24          6           0       -2.590500    3.331673   -1.448378
     25          1           0       -3.518495    2.900532   -1.071995
     26          1           0       -2.393770    4.277051   -0.942324
     27          1           0       -2.641758    3.474486   -2.525207
     28          7           0        0.299792    0.999658    1.528719
     29          1           0       -0.350222    1.360354    2.213398
     30          6           0        1.518487    0.625939    2.002986
     31          8           0        1.826922    0.595447    3.177041
     32          8           0        2.356212    0.275536    0.987664
     33          6           0        3.690178   -0.131523    1.394809
     34          1           0        3.605190   -1.004898    2.043932
     35          1           0        4.140543    0.677330    1.972387
     36          6           0        4.478242   -0.435359    0.151209
     37          6           0        5.196919    0.573345   -0.497522
     38          6           0        4.492295   -1.726404   -0.384730
     39          6           0        5.912381    0.299376   -1.661003
     40          1           0        5.197100    1.577744   -0.086635
     41          6           0        5.206629   -2.004695   -1.548187
     42          1           0        3.942365   -2.518044    0.113930
     43          6           0        5.917389   -0.991017   -2.189063
     44          1           0        6.468452    1.089908   -2.152385
     45          1           0        5.212009   -3.011051   -1.951643
     46          1           0        6.476979   -1.206613   -3.092360
 ---------------------------------------------------------------------

 SCF Done:  E(RB3LYP) =  -1184.93852447     A.U. after    2 cycles

 The electronic state is 1-A.
 Alpha  occ. eigenvalues --  -19.18406 -19.16591 -19.12796 -19.09433 -14.36301
 Alpha  occ. eigenvalues --  -14.34001 -10.31980 -10.31539 -10.23735 -10.23609
 Alpha  occ. eigenvalues --  -10.23441 -10.20966 -10.20731 -10.19346 -10.18713
 Alpha  occ. eigenvalues --  -10.18631 -10.18615 -10.18594 -10.18540 -10.18519
 Alpha  occ. eigenvalues --  -10.17835 -10.17541 -10.17436 -10.17348 -10.17290
 Alpha  occ. eigenvalues --  -10.16906  -1.12615  -1.10968  -1.03983  -1.01658
 Alpha  occ. eigenvalues --   -0.98784  -0.93995  -0.87166  -0.84734  -0.81641
 Alpha  occ. eigenvalues --   -0.78909  -0.77832  -0.75956  -0.74381  -0.73930
 Alpha  occ. eigenvalues --   -0.72156  -0.70902  -0.67343  -0.63022  -0.62068
 Alpha  occ. eigenvalues --   -0.61641  -0.60069  -0.58970  -0.58689  -0.56829
 Alpha  occ. eigenvalues --   -0.54890  -0.54048  -0.53285  -0.52471  -0.50612
 Alpha  occ. eigenvalues --   -0.49856  -0.49278  -0.49103  -0.47978  -0.47282
 Alpha  occ. eigenvalues --   -0.46774  -0.46411  -0.45385  -0.44847  -0.44706
 Alpha  occ. eigenvalues --   -0.43760  -0.43453  -0.43187  -0.42758  -0.42390
 Alpha  occ. eigenvalues --   -0.41587  -0.40565  -0.39824  -0.38993  -0.38228
 Alpha  occ. eigenvalues --   -0.38012  -0.37566  -0.37165  -0.36011  -0.35597
 Alpha  occ. eigenvalues --   -0.35177  -0.34287  -0.34227  -0.32474  -0.30897
 Alpha  occ. eigenvalues --   -0.29936  -0.28565  -0.28481  -0.26726  -0.26439
 Alpha  occ. eigenvalues --   -0.26372  -0.23221  -0.21242
 Alpha virt. eigenvalues --   -0.03098  -0.02737  -0.02502  -0.01348  -0.00674
 Alpha virt. eigenvalues --   -0.00196   0.00174   0.00820   0.01151   0.01421
 Alpha virt. eigenvalues --    0.01810   0.01944   0.02687   0.03119   0.03163

 Mulliken charges:
               1
     1  C   -0.230146
     2  C    1.619722
     3  C   -1.061177
     4  C   -0.288861
     5  C   -0.306884
     6  C   -0.323860
     7  C   -0.058535
     8  C    0.311863
     9  H    0.114341
    10  H    0.118460
    11  H    0.121632
    12  H    0.107604
    13  H    0.310512
    14  H    0.131714
    15  N   -0.142846
    16  C   -0.504243
    17  H    0.174487
    18  H    0.153809
    19  C   -0.301220
    20  H    0.195965
    21  C   -0.260484
    22  O   -0.226243
    23  O   -0.019094
    24  C   -0.187477
    25  H    0.177952
    26  H    0.165133
    27  H    0.155666
    28  N   -0.328738
    29  H    0.338613
    30  C    0.253323
    31  O   -0.292475
    32  O   -0.037780
    33  C   -0.569205
    34  H    0.167651
    35  H    0.180757
    36  C    0.698775
    37  C   -0.159806
    38  C   -0.124483
    39  C   -0.256386
    40  H    0.116330
    41  C   -0.339711
    42  H    0.113134
    43  C   -0.093135
    44  H    0.128797
    45  H    0.128250
    46  H    0.128297
 Sum of Mulliken charges =   0.00000

 Dipole moment (field-independent basis, Debye):
    X=             -0.2883    Y=             -1.0436    Z=             -2.7322  Tot=              2.9389
 Quadrupole moment (field-independent basis, Debye-Ang):
   XX=           -139.9257   YY=           -142.9688   ZZ=           -156.4094
   XY=              1.7673   XZ=            -10.8359   YZ=            -15.6934

  Exact polarizability: 306.784   6.864 218.282   2.401 -13.014 252.911
 Approx polarizability: 410.906  13.356 341.324  -1.431 -31.498 434.900

 ESP charges:
               1
     1  C    0.335847
     2  C    0.035309
     3  C   -0.143334
     4  C   -0.142610
     5  C   -0.060120
     6  C   -0.284109
     7  C    0.039367
     8  C   -0.241358
     9  H    0.122229
    10  H    0.084502
    11  H    0.086545
    12  H    0.129874
    13  H    0.379367
    14  H    0.122817
    15  N   -0.555615
    16  C    0.320636
    17  H   -0.090895
    18  H   -0.071517
    19  C    0.199861
    20  H   -0.076933
    21  C    0.779038
    22  O   -0.562945
    23  O   -0.416204
    24  C    0.089725
    25  H    0.032398
    26  H    0.052398
    27  H    0.061054
    28  N   -0.739555
    29  H    0.325795
    30  C    0.894981
    31  O   -0.636345
    32  O   -0.225003
    33  C   -0.074342
    34  H    0.078750
    35  H    0.080857
    36  C    0.114686
    37  C   -0.140201
    38  C   -0.134409
    39  C   -0.075734
    40  H    0.104499
    41  C   -0.073767
    42  H    0.106715
    43  C   -0.082671
    44  H    0.085519
    45  H    0.080052
    46  H    0.084849
 Sum of ESP charges =   0.00000

 Summary of Natural Population Analysis:

                                       Natural Population
                Natural  -----------------------------------------------
    Atom  No    Charge         Core      Valence    Rydberg      Total
 -----------------------------------------------------------------------
      C    1    0.15567      1.99896     3.82387    0.02150     5.84433
      C    2   -0.08619      1.99893     4.07136    0.01591     6.08619
      C    3   -0.20485      1.99912     4.18713    0.01859     6.20485
      C    4   -0.20984      1.99894     4.19259    0.01830     6.20984
      C    5   -0.21871      1.99923     4.19924    0.02024     6.21871
      C    6   -0.23317      1.99907     4.21782    0.01629     6.23317
      C    7    0.00900      1.99904     3.96981    0.02215     5.99100
      C    8   -0.12451      1.99898     4.10661    0.01892     6.12451
      H    9    0.20502      0.00000     0.79151    0.00347     0.79498
      H   10    0.20221      0.00000     0.79603    0.00176     0.79779
      H   11    0.20459      0.00000     0.79383    0.00158     0.79541
      H   12    0.20734      0.00000     0.79083    0.00183     0.79266
      H   13    0.40534      0.00000     0.59236    0.00230     0.59466
      H   14    0.21221      0.00000     0.78600    0.00179     0.78779
      N   15   -0.54112      1.99931     5.52744    0.01436     7.54112
      C   16   -0.39278      1.99917     4.37714    0.01647     6.39278
      H   17    0.22705      0.00000     0.77090    0.00205     0.77295
      H   18    0.22101      0.00000     0.77717    0.00181     0.77899
      C   19   -0.09685      1.99911     4.07464    0.02310     6.09685
      H   20    0.23765      0.00000     0.76027    0.00208     0.76235
      C   21    0.82133      1.99934     3.12921    0.05012     5.17867
      O   22   -0.60147      1.99973     6.58903    0.01271     8.60147
      O   23   -0.55141      1.99971     6.53600    0.01570     8.55141
      C   24   -0.21789      1.99924     4.20236    0.01629     6.21789
      H   25    0.19452      0.00000     0.80362    0.00185     0.80548
      H   26    0.18905      0.00000     0.80920    0.00175     0.81095
      H   27    0.18779      0.00000     0.81112    0.00109     0.81221
      N   28   -0.65911      1.99929     5.64084    0.01898     7.65911
      H   29    0.42537      0.00000     0.57068    0.00395     0.57463
      C   30    0.92135      1.99942     3.03176    0.04748     5.07865
      O   31   -0.65106      1.99974     6.63993    0.01138     8.65106
      O   32   -0.58806      1.99972     6.57223    0.01611     8.58806
      C   33   -0.04158      1.99906     4.02067    0.02185     6.04158
      H   34    0.19520      0.00000     0.80269    0.00211     0.80480
      H   35    0.19823      0.00000     0.79975    0.00202     0.80177
      C   36   -0.06623      1.99900     4.04945    0.01779     6.06623
      C   37   -0.18583      1.99905     4.16933    0.01745     6.18583
      C   38   -0.18678      1.99905     4.17022    0.01750     6.18678
      C   39   -0.20018      1.99916     4.18284    0.01818     6.20018
      H   40    0.20742      0.00000     0.79097    0.00161     0.79258
      C   41   -0.20023      1.99916     4.18285    0.01821     6.20023
      H   42    0.20650      0.00000     0.79187    0.00163     0.79350
      C   43   -0.19839      1.99916     4.18130    0.01793     6.19839
      H   44    0.20751      0.00000     0.79096    0.00153     0.79249
      H   45    0.20754      0.00000     0.79093    0.00153     0.79246
      H   46    0.20740      0.00000     0.79124    0.00135     0.79260
 =======================================================================
   * Total *    0.00002     51.97972   133.45763    0.56263   185.99998

                      1                      2                      3
                      A                      A                      A
 Frequencies --      8.0055                19.4898                21.1639
 Red. masses --      5.4163                 3.9436                 4.7918
 Frc consts  --      0.0002                 0.0009                 0.0013
 IR Inten    --      0.0102                 0.0643                 0.3649

                      4                      5                      6
                      A                      A                      A
 Frequencies --     25.8397                34.4141                40.6565
 Red. masses --      4.9779                 5.5032                 4.5866
 Frc consts  --      0.0020                 0.0038                 0.0045
 IR Inten    --      0.2065                 0.3097                 0.6028

                      7                      8                      9
                      A                      A                      A
 Frequencies --     54.1437                67.6567                81.3850
 Red. masses --      6.9986                 6.3672                 5.7410
 Frc consts  --      0.0121                 0.0172                 0.0224
 IR Inten    --      2.1959                 0.1514                 1.1063

                     10                     11                     12
                      A                      A                      A
 Frequencies --    108.0271               121.8859               134.5516
 Red. masses --      3.1300                 2.4882                 1.7677
 Frc consts  --      0.0215                 0.0218                 0.0189
 IR Inten    --      2.2016                 0.8177                 1.0829

                     13                     14                     15
                      A                      A                      A
 Frequencies --    137.2945               172.1060               180.3691
 Red. masses --      5.2829                 4.8988                 4.2646
 Frc consts  --      0.0587                 0.0855                 0.0817
 IR Inten    --      0.7884                 0.6732                 4.3409

                     16                     17                     18
                      A                      A                      A
 Frequencies --    206.9811               217.2060               238.5564
 Red. masses --      4.7834                 3.8740                 7.9607
 Frc consts  --      0.1207                 0.1077                 0.2669
 IR Inten    --      0.3286                10.6449                10.4994

                     19                     20                     21
                      A                      A                      A
 Frequencies --    280.1793               299.0154               308.5047
 Red. masses --      3.8827                 5.0091                 6.6760
 Frc consts  --      0.1796                 0.2639                 0.3744
 IR Inten    --      3.3007                 8.5864                 7.9045

                     22                     23                     24
                      A                      A                      A
 Frequencies --    333.9812               342.3649               388.6700
 Red. masses --      2.2357                 2.8560                 1.8531
 Frc consts  --      0.1469                 0.1972                 0.1649
 IR Inten    --      0.9482                 7.4153                26.4413

                     25                     26                     27
                      A                      A                      A
 Frequencies --    394.7452               413.6545               428.4105
 Red. masses --      2.7564                 2.8665                 2.8333
 Frc consts  --      0.2531                 0.2890                 0.3064
 IR Inten    --     40.5034                 0.0009                 3.4076

                     28                     29                     30
                      A                      A                      A
 Frequencies --    464.9825               490.2416               498.2357
 Red. masses --      3.3791                 4.0603                 4.3917
 Frc consts  --      0.4305                 0.5749                 0.6423
 IR Inten    --      3.1864                27.8889                24.2861

                     31                     32                     33
                      A                      A                      A
 Frequencies --    549.5478               552.4896               563.3800
 Red. masses --      1.1255                 4.8973                 5.8396
 Frc consts  --      0.2003                 0.8808                 1.0920
 IR Inten    --     72.4623                14.8479                 1.5918

                     34                     35                     36
                      A                      A                      A
 Frequencies --    583.0410               586.3033               606.8809
 Red. masses --      4.1948                 3.4575                 4.3244
 Frc consts  --      0.8402                 0.7003                 0.9384
 IR Inten    --      5.1600                16.7909                 9.3443

                     37                     38                     39
                      A                      A                      A
 Frequencies --    635.8355               648.5378               666.0774
 Red. masses --      6.3238                 3.7034                 4.2655
 Frc consts  --      1.5063                 0.9177                 1.1150
 IR Inten    --      0.0638                 2.5822                 7.4927

                     40                     41                     42
                      A                      A                      A
 Frequencies --    706.7496               710.3028               712.9307
 Red. masses --      4.4124                 1.7956                 4.4257
 Frc consts  --      1.2985                 0.5337                 1.3253
 IR Inten    --     10.8857                48.4474                 3.5466

                     43                     44                     45
                      A                      A                      A
 Frequencies --    747.9897               767.7980               770.2432
 Red. masses --      1.2984                 4.5060                 2.3014
 Frc consts  --      0.4280                 1.5651                 0.8044
 IR Inten    --     81.5136                10.9782                34.1743

                     46                     47                     48
                      A                      A                      A
 Frequencies --    773.1902               775.2415               799.5806
 Red. masses --      3.6679                11.0430                 2.1990
 Frc consts  --      1.2919                 3.9103                 0.8283
 IR Inten    --      0.7709                21.3501                 3.3058

                     49                     50                     51
                      A                      A                      A
 Frequencies --    830.1829               842.1089               854.0516
 Red. masses --      2.5214                 3.4181                 1.5779
 Frc consts  --      1.0239                 1.4282                 0.6781
 IR Inten    --      1.3212                 9.2468                 0.4003

                     52                     53                     54
                      A                      A                      A
 Frequencies --    856.7637               885.6124               895.6953
 Red. masses --      1.2480                 4.4433                 3.1799
 Frc consts  --      0.5397                 2.0533                 1.5031
 IR Inten    --      0.0261                 1.4652                 4.1681

                     55                     56                     57
                      A                      A                      A
 Frequencies --    916.8861               928.7210               939.0026
 Red. masses --      2.8424                 2.2889                 1.3711
 Frc consts  --      1.4079                 1.1632                 0.7123
 IR Inten    --      7.8325                 3.6869                 1.6569

                     58                     59                     60
                      A                      A                      A
 Frequencies --    962.0559               974.9798               976.3091
 Red. masses --      3.3027                 1.9481                 1.5396
 Frc consts  --      1.8010                 1.0911                 0.8646
 IR Inten    --     17.0616                 4.5439                 1.4170

                     61                     62                     63
                      A                      A                      A
 Frequencies --    977.6868               986.2158              1006.5559
 Red. masses --      1.9865                 1.3762                 1.2967
 Frc consts  --      1.1188                 0.7886                 0.7741
 IR Inten    --      8.1001                 0.0783                 1.3862

                     64                     65                     66
                      A                      A                      A
 Frequencies --   1018.7592              1027.8135              1033.4537
 Red. masses --      6.3005                 3.0496                 2.1693
 Frc consts  --      3.8527                 1.8981                 1.3650
 IR Inten    --      2.1543                18.3974                 6.2741

                     67                     68                     69
                      A                      A                      A
 Frequencies --   1045.7475              1052.2240              1074.0734
 Red. masses --      4.2324                 3.0369                 3.4728
 Frc consts  --      2.7270                 1.9811                 2.3604
 IR Inten    --    259.4450               133.9001                35.5651

                     70                     71                     72
                      A                      A                      A
 Frequencies --   1109.0886              1110.3956              1144.4394
 Red. masses --      1.5090                 1.5759                 1.5519
 Frc consts  --      1.0936                 1.1448                 1.1976
 IR Inten    --      3.2935                35.1176                 8.9784

                     73                     74                     75
                      A                      A                      A
 Frequencies --   1162.5973              1173.4193              1177.0024
 Red. masses --      2.1362                 1.2795                 1.3019
 Frc consts  --      1.7012                 1.0380                 1.0626
 IR Inten    --     30.6763                 1.0815                 8.9567

                     76                     77                     78
                      A                      A                      A
 Frequencies --   1182.7556              1201.7742              1202.4338
 Red. masses --      1.1158                 1.6737                 1.1379
 Frc consts  --      0.9197                 1.4242                 0.9693
 IR Inten    --      0.0102                49.7978                 0.4264

                     79                     80                     81
                      A                      A                      A
 Frequencies --   1222.0847              1225.3729              1237.6069
 Red. masses --      1.4696                 2.0645                 2.6485
 Frc consts  --      1.2931                 1.8264                 2.3901
 IR Inten    --     42.6972               101.6249                14.1915

                     82                     83                     84
                      A                      A                      A
 Frequencies --   1245.0592              1249.9260              1262.1748
 Red. masses --      2.4928                 1.1740                 1.6395
 Frc consts  --      2.2768                 1.0807                 1.5388
 IR Inten    --     43.1963                 1.6086                62.7036

                     85                     86                     87
                      A                      A                      A
 Frequencies --   1285.5839              1316.9929              1335.5775
 Red. masses --      1.4062                 2.3207                 2.7458
 Frc consts  --      1.3693                 2.3716                 2.8857
 IR Inten    --      4.3059                14.7427               683.7927

                     88                     89                     90
                      A                      A                      A
 Frequencies --   1341.3259              1345.8942              1358.7127
 Red. masses --      4.7473                 1.5553                 1.2875
 Frc consts  --      5.0323                 1.6599                 1.4004
 IR Inten    --      1.1657                50.3765                 0.4100

                     91                     92                     93
                      A                      A                      A
 Frequencies --   1367.4862              1373.8612              1390.8697
 Red. masses --      4.1086                 1.7285                 1.8551
 Frc consts  --      4.5268                 1.9222                 2.1144
 IR Inten    --     18.4325                12.5761                22.5712

                     94                     95                     96
                      A                      A                      A
 Frequencies --   1422.7836              1449.8397              1471.3041
 Red. masses --      1.7906                 2.4852                 1.2110
 Frc consts  --      2.1356                 3.0779                 1.5445
 IR Inten    --     91.6601                18.6059                30.3012

                     97                     98                     99
                      A                      A                      A
 Frequencies --   1479.0552              1481.7718              1483.7546
 Red. masses --      2.0587                 1.5104                 2.1793
 Frc consts  --      2.6534                 1.9539                 2.8268
 IR Inten    --     21.6513                16.5019                 6.0502

                    100                    101                    102
                      A                      A                      A
 Frequencies --   1485.7141              1493.3305              1496.7701
 Red. masses --      1.0480                 1.3708                 1.0481
 Frc consts  --      1.3630                 1.8011                 1.3834
 IR Inten    --     11.9912                17.4331                 8.4183

                    103                    104                    105
                      A                      A                      A
 Frequencies --   1512.3953              1521.2064              1529.5715
 Red. masses --      1.1044                 2.8701                 2.2585
 Frc consts  --      1.4884                 3.9131                 3.1132
 IR Inten    --      8.2208                 2.0780                 3.8631

                    106                    107                    108
                      A                      A                      A
 Frequencies --   1580.0306              1612.1662              1625.8830
 Red. masses --      5.4939                 5.6425                 5.5850
 Frc consts  --      8.0810                 8.6405                 8.6987
 IR Inten    --      7.7238                 0.5483                 0.4391

                    109                    110                    111
                      A                      A                      A
 Frequencies --   1646.9792              1657.0849              1776.6413
 Red. masses --      5.6508                 6.0656                 9.7486
 Frc consts  --      9.0310                 9.8132                18.1298
 IR Inten    --      0.1138                 2.9316               780.4013

                    112                    113                    114
                      A                      A                      A
 Frequencies --   1789.7374              3055.6390              3056.1054
 Red. masses --     10.8980                 1.0302                 1.0610
 Frc consts  --     20.5673                 5.6673                 5.8384
 IR Inten    --    129.2282                30.8648                 9.6355

                    115                    116                    117
                      A                      A                      A
 Frequencies --   3063.0538              3070.3488              3096.7119
 Red. masses --      1.0573                 1.0813                 1.1038
 Frc consts  --      5.8446                 6.0057                 6.2364
 IR Inten    --     20.1818                12.2822                 9.1152

                    118                    119                    120
                      A                      A                      A
 Frequencies --   3108.9789              3133.0770              3158.6894
 Red. masses --      1.1093                 1.1077                 1.0860
 Frc consts  --      6.3175                 6.4065                 6.3837
 IR Inten    --     10.9331                15.8261                 4.6591

                    121                    122                    123
                      A                      A                      A
 Frequencies --   3160.9250              3161.4816              3161.5090
 Red. masses --      1.0853                 1.1066                 1.0878
 Frc consts  --      6.3889                 6.5168                 6.4061
 IR Inten    --      1.2967                 9.5284                 2.0441

                    124                    125                    126
                      A                      A                      A
 Frequencies --   3168.1280              3170.9074              3178.3496
 Red. masses --      1.0884                 1.0906                 1.0933
 Frc consts  --      6.4366                 6.4606                 6.5071
 IR Inten    --      5.1692                 8.8309                26.4292

                    127                    128                    129
                      A                      A                      A
 Frequencies --   3180.2338              3188.9203              3190.2932
 Red. masses --      1.0942                 1.0969                 1.0981
 Frc consts  --      6.5201                 6.5719                 6.5851
 IR Inten    --     26.5893                17.6883                12.6975

                    130                    131                    132
                      A                      A                      A
 Frequencies --   3247.9017              3609.1332              3672.4639
 Red. masses --      1.0971                 1.0769                 1.0804
 Frc consts  --      6.8190                 8.2645                 8.5851
 IR Inten    --      0.3009                99.0182                78.7769

 - Thermochemistry -
 -------------------
 Temperature   298.150 Kelvin.  Pressure   1.00000 Atm.
 Atom     1 has atomic number  6 and mass  12.00000

 Molecular mass:   352.14231 amu.
 Principal axes and moments of inertia in atomic units:
                           1         2         3
     Eigenvalues --  5375.29867********************
           X            0.99999  -0.00350   0.00004
           Y            0.00347   0.99233  -0.12359
           Z            0.00039   0.12359   0.99233
 This molecule is an asymmetric top.
 Rotational symmetry number  1.
 Warning -- assumption of classical behavior for rotation
           may cause significant error
 Rotational temperatures (Kelvin)      0.01611     0.00465     0.00454
 Rotational constants (GHZ):           0.33575     0.09686     0.09452
 Zero-point vibrational energy     969723.1 (Joules/Mol)
                                  231.76938 (Kcal/Mol)
 Warning -- explicit consideration of  36 degrees of freedom as
           vibrations may cause significant error
 Vibrational temperatures:     11.52    28.04    30.45    37.18    49.51
          (Kelvin)             58.50    77.90    97.34   117.09   155.43
                              175.37   193.59   197.54   247.62   259.51
                              297.80   312.51   343.23   403.12   430.22
                              443.87   480.52   492.59   559.21   567.95
                              595.16   616.39   669.01   705.35   716.85
                              790.68   794.91   810.58   838.86   843.56
                              873.17   914.82   933.10   958.34  1016.85
                             1021.97  1025.75  1076.19  1104.69  1108.21
                             1112.45  1115.40  1150.42  1194.45  1211.61
                             1228.79  1232.69  1274.20  1288.70  1319.19
                             1336.22  1351.01  1384.18  1402.78  1404.69
                             1406.67  1418.94  1448.21  1465.77  1478.79
                             1486.91  1504.60  1513.91  1545.35  1595.73
                             1597.61  1646.59  1672.72  1688.29  1693.44
                             1701.72  1729.08  1730.03  1758.31  1763.04
                             1780.64  1791.36  1798.36  1815.99  1849.67
                             1894.86  1921.60  1929.87  1936.44  1954.88
                             1967.51  1976.68  2001.15  2047.07  2085.99
                             2116.88  2128.03  2131.94  2134.79  2137.61
                             2148.57  2153.52  2176.00  2188.67  2200.71
                             2273.31  2319.54  2339.28  2369.63  2384.17
                             2556.19  2575.03  4396.38  4397.05  4407.05
                             4417.54  4455.47  4473.12  4507.79  4544.64
                             4547.86  4548.66  4548.70  4558.22  4562.22
                             4572.93  4575.64  4588.14  4590.11  4673.00
                             5192.73  5283.85

 Zero-point correction=                           0.369348 (Hartree/Particle)
 Thermal correction to Energy=                    0.393070
 Thermal correction to Enthalpy=                  0.394014
 Thermal correction to Gibbs Free Energy=         0.310452
 Sum of electronic and zero-point Energies=          -1184.569176
 Sum of electronic and thermal Energies=             -1184.545454
 Sum of electronic and thermal Enthalpies=           -1184.544510
 Sum of electronic and thermal Free Energies=        -1184.628073

                     E (Thermal)             CV                S
                      KCal/Mol        Cal/Mol-Kelvin    Cal/Mol-Kelvin
 Total                  246.655             89.192            175.872
 Electronic               0.000              0.000              0.000
 Translational            0.889              2.981             43.470
 Rotational               0.889              2.981             35.901
 Vibrational            244.878             83.230             96.500
 Vibration     1          0.593              1.987              8.453
 Vibration     2          0.593              1.986              6.686
 Vibration     3          0.593              1.985              6.522
 Vibration     4          0.593              1.985              6.126
 Vibration     5          0.594              1.983              5.557
 Vibration     6          0.594              1.981              5.227
 Vibration     7          0.596              1.976              4.660
 Vibration     8          0.598              1.970              4.220
 Vibration     9          0.600              1.962              3.857
 Vibration    10          0.606              1.943              3.304
 Vibration    11          0.609              1.931              3.070
 Vibration    12          0.613              1.919              2.880
 Vibration    13          0.614              1.916              2.841
 Vibration    14          0.626              1.877              2.412
 Vibration    15          0.629              1.866              2.325
 Vibration    16          0.641              1.830              2.070
 Vibration    17          0.646              1.815              1.982
 Vibration    18          0.657              1.782              1.814
 Vibration    19          0.680              1.710              1.533
 Vibration    20          0.692              1.676              1.422
 Vibration    21          0.698              1.658              1.370
 Vibration    22          0.716              1.608              1.241
 Vibration    23          0.721              1.591              1.201
 Vibration    24          0.757              1.494              1.005
 Vibration    25          0.762              1.481              0.982
 Vibration    26          0.777              1.441              0.914
 Vibration    27          0.790              1.408              0.864
 Vibration    28          0.822              1.328              0.752
 Vibration    29          0.846              1.272              0.683
 Vibration    30          0.854              1.254              0.663
 Vibration    31          0.905              1.141              0.545
 Vibration    32          0.908              1.134              0.539
 Vibration    33          0.919              1.111              0.517
 Vibration    34          0.940              1.068              0.480
 Vibration    35          0.943              1.061              0.474
 Vibration    36          0.966              1.017              0.438

 Normal termination of Gaussian 09 at Wed Jan 25 11:08:56 2023.
