 Gaussian 09, Revision D.01,
 Gaussian 09:  ES64L-G09RevD.01 24-Apr-2013

 ---------------------------------------------------------------------
 # b3lyp/6-311+g(d,p) geom=connectivity pop=(hirshfeld,chelpg,mbs,npa)
 ---------------------------------------------------------------------

 --------
 Table9_9
 --------
 Symbolic Z-matrix:
 Charge =  0 Multiplicity = 1

                         Standard orientation:
 ---------------------------------------------------------------------
 Center     Atomic      Atomic             Coordinates (Angstroms)
 Number     Number       Type             X           Y           Z
 ---------------------------------------------------------------------
      1          6           0       -0.422641    1.215882    0.000013
      2          6           0       -0.926081   -0.111970    0.000024
      3          6           0       -2.325333   -0.316434    0.000100
      4          6           0       -3.162156    0.790716   -0.000009
      5          6           0       -2.623470    2.098094   -0.000006
      6          6           0       -1.262730    2.339742    0.000082
      7          6           0        1.321050   -0.208850   -0.000031
      8          6           0        0.190449   -0.995260    0.000037
      9          1           0       -4.236819    0.671870   -0.000191
     10          1           0       -3.311152    2.936252   -0.000066
     11          1           0       -0.867243    3.348199    0.000158
     12          1           0        1.599962    1.892650    0.000045
     13          1           0        0.179098   -2.072339    0.000096
     14          6           0        2.720417   -0.631994    0.000018
     15          8           0        3.108795   -1.777112    0.000079
     16          8           0        3.557250    0.443037    0.000012
     17          6           0        4.963624    0.140089   -0.000082
     18          1           0        5.229568   -0.434355   -0.888411
     19          1           0        5.469324    1.103362   -0.001450
     20          1           0        5.230156   -0.432054    0.889585
     21          7           0        0.945689    1.127412   -0.000103
     22          8           0       -2.732833   -1.613606    0.000023
     23          6           0       -4.128812   -1.885855   -0.000081
     24          1           0       -4.612273   -1.479154   -0.894561
     25          1           0       -4.219667   -2.970668   -0.000096
     26          1           0       -4.612374   -1.479153    0.894319
 ---------------------------------------------------------------------

 SCF Done:  E(RB3LYP) =  -706.421791500     A.U. after   15 cycles

 The electronic state is 1-A.
 Alpha  occ. eigenvalues --  -19.17556 -19.16185 -19.11274 -14.36649 -10.30846
 Alpha  occ. eigenvalues --  -10.24258 -10.23126 -10.23008 -10.21935 -10.21844
 Alpha  occ. eigenvalues --  -10.18258 -10.17920 -10.17789 -10.17678 -10.17207
 Alpha  occ. eigenvalues --   -1.11288  -1.07713  -1.02562  -0.99460  -0.85243
 Alpha  occ. eigenvalues --   -0.80014  -0.77034  -0.75279  -0.72850  -0.70311
 Alpha  occ. eigenvalues --   -0.64389  -0.61977  -0.60006  -0.57301  -0.55876
 Alpha  occ. eigenvalues --   -0.53427  -0.49781  -0.49272  -0.48815  -0.48235
 Alpha  occ. eigenvalues --   -0.47831  -0.47460  -0.44453  -0.43973  -0.43518
 Alpha  occ. eigenvalues --   -0.41677  -0.41109  -0.40328  -0.38676  -0.37489
 Alpha  occ. eigenvalues --   -0.37022  -0.36873  -0.34092  -0.32383  -0.31636
 Alpha  occ. eigenvalues --   -0.29005  -0.27453  -0.23909  -0.21081
 Alpha virt. eigenvalues --   -0.05513  -0.00393   0.00246   0.00807   0.01114
 Alpha virt. eigenvalues --    0.01210   0.01796   0.02743   0.03451   0.04211
 Alpha virt. eigenvalues --    0.04474   0.04780   0.04861   0.05725   0.06872

 Mulliken charges:
               1
     1  C   -0.546856
     2  C    0.909224
     3  C    0.189871
     4  C   -0.083724
     5  C   -0.199335
     6  C   -0.870541
     7  C   -0.139095
     8  C    0.220486
     9  H    0.120826
    10  H    0.124806
    11  H    0.106761
    12  H    0.316740
    13  H    0.140419
    14  C   -0.016434
    15  O   -0.293833
    16  O   -0.177270
    17  C   -0.127330
    18  H    0.162417
    19  H    0.151310
    20  H    0.162402
    21  N   -0.185913
    22  O   -0.191810
    23  C   -0.227921
    24  H    0.147334
    25  H    0.160142
    26  H    0.147324
 Sum of Mulliken charges =   0.00000

 Dipole moment (field-independent basis, Debye):
    X=             -0.8938    Y=              2.6636    Z=             -0.0003  Tot=              2.8096
 Quadrupole moment (field-independent basis, Debye-Ang):
   XX=            -64.8417   YY=            -85.9911   ZZ=            -90.9432
   XY=             12.2536   XZ=              0.0001   YZ=              0.0008

 ESP charges:
               1
     1  C    0.413666
     2  C   -0.102612
     3  C    0.314332
     4  C   -0.299343
     5  C   -0.032026
     6  C   -0.394212
     7  C   -0.084876
     8  C   -0.121594
     9  H    0.135100
    10  H    0.100094
    11  H    0.165058
    12  H    0.332809
    13  H    0.110134
    14  C    0.766272
    15  O   -0.558932
    16  O   -0.374375
    17  C    0.009601
    18  H    0.071179
    19  H    0.068020
    20  H    0.071044
    21  N   -0.476352
    22  O   -0.330188
    23  C    0.139863
    24  H    0.015804
    25  H    0.045729
    26  H    0.015802
 Sum of ESP charges =   0.00000

 Summary of Natural Population Analysis:

                                       Natural Population
                Natural  -----------------------------------------------
    Atom  No    Charge         Core      Valence    Rydberg      Total
 -----------------------------------------------------------------------
      C    1    0.18423      1.99901     3.79594    0.02083     5.81577
      C    2   -0.14495      1.99894     4.12762    0.01838     6.14495
      C    3    0.36481      1.99855     3.61267    0.02397     5.63519
      C    4   -0.31649      1.99895     4.30183    0.01571     6.31649
      C    5   -0.17970      1.99924     4.16122    0.01924     6.17970
      C    6   -0.26819      1.99907     4.25200    0.01712     6.26819
      C    7    0.04121      1.99897     3.93668    0.02313     5.95879
      C    8   -0.19072      1.99900     4.17497    0.01674     6.19072
      H    9    0.21034      0.00000     0.78734    0.00233     0.78966
      H   10    0.20535      0.00000     0.79304    0.00161     0.79465
      H   11    0.21093      0.00000     0.78729    0.00178     0.78907
      H   12    0.42122      0.00000     0.57653    0.00224     0.57878
      H   13    0.24153      0.00000     0.75664    0.00184     0.75847
      C   14    0.76921      1.99924     3.18588    0.04568     5.23079
      O   15   -0.59012      1.99975     6.57881    0.01156     8.59012
      O   16   -0.57299      1.99974     6.55807    0.01518     8.57299
      C   17   -0.21341      1.99925     4.19776    0.01640     6.21341
      H   18    0.18779      0.00000     0.81030    0.00191     0.81221
      H   19    0.18506      0.00000     0.81382    0.00112     0.81494
      H   20    0.18773      0.00000     0.81036    0.00191     0.81227
      N   21   -0.52594      1.99926     5.51297    0.01371     7.52594
      O   22   -0.53400      1.99970     6.51492    0.01938     8.53400
      C   23   -0.20790      1.99926     4.19301    0.01563     6.20790
      H   24    0.17147      0.00000     0.82618    0.00235     0.82853
      H   25    0.19217      0.00000     0.80668    0.00115     0.80783
      H   26    0.17147      0.00000     0.82617    0.00235     0.82853
 =======================================================================
   * Total *    0.00010     29.98793    77.69870    0.31326   107.99990

 Normal termination of Gaussian 09 at Fri Jul 23 17:41:25 2021.
