 Gaussian 09, Revision D.01,
 Gaussian 09:  ES64L-G09RevD.01 24-Apr-2013

 ----------------------------------------------------------------------
 # opt=rcfc geom=allcheck guess=read freq=noraman b3lyp/6-311+g(d,p) po
 p=(npa,hirshfeld,chelpg,mbs)
 ----------------------------------------------------------------------

 Structure from the checkpoint file:  "C3-alkylindoles2_Movassaghi.chk"
 -------------------
 Title Card Required
 -------------------
 Charge =  0 Multiplicity = 1

 SCF Done:  E(RB3LYP) =  -725.887041447     A.U. after    1 cycles
 SCF Done:  E(RB3LYP) =  -725.887041657     A.U. after    8 cycles
 Optimization completed.
    -- Stationary point found.
 Normal termination of Gaussian 09 at Tue Jan 10 09:27:57 2023.

 ----------------------------------------------------------------------
 #N Geom=AllCheck Guess=TCheck SCRF=Check GenChk RB3LYP/6-311+G(d,p) Fr
 eq
 ----------------------------------------------------------------------

 Structure from the checkpoint file:  "C3-alkylindoles2_Movassaghi.chk"
 -------------------
 Title Card Required
 -------------------
 Charge =  0 Multiplicity = 1

                         Standard orientation:
 ---------------------------------------------------------------------
 Center     Atomic      Atomic             Coordinates (Angstroms)
 Number     Number       Type             X           Y           Z
 ---------------------------------------------------------------------
      1          6           0       -3.073722   -0.716797    0.200245
      2          6           0       -2.077969    0.250727   -0.095865
      3          6           0       -2.449258    1.602368   -0.180686
      4          6           0       -3.776267    1.951181    0.025102
      5          6           0       -4.747383    0.973655    0.317002
      6          6           0       -4.410947   -0.370197    0.408554
      7          6           0       -1.102208   -1.777872   -0.050041
      8          6           0       -0.825543   -0.449727   -0.251769
      9          1           0       -1.710693    2.364944   -0.402909
     10          1           0       -4.074728    2.991399   -0.037975
     11          1           0       -5.776541    1.276289    0.473271
     12          1           0       -5.161237   -1.120383    0.633679
     13          1           0       -2.899217   -2.827740    0.400838
     14          1           0       -0.448791   -2.635683   -0.074326
     15          7           0       -2.450147   -1.945631    0.223225
     16          6           0        0.496609    0.190476   -0.565894
     17          1           0        0.377600    0.865780   -1.422516
     18          1           0        0.816942    0.819905    0.272858
     19          6           0        1.620298   -0.806213   -0.880108
     20          1           0        1.332587   -1.439941   -1.723804
     21          1           0        1.798098   -1.459598   -0.025563
     22          7           0        2.883874   -0.164838   -1.226894
     23          1           0        3.027615    0.150173   -2.173524
     24          6           0        3.843296    0.265543   -0.360034
     25          8           0        4.837055    0.884654   -0.681863
     26          8           0        3.558808   -0.099618    0.917681
     27          6           0        4.537665    0.285002    1.896347
     28          1           0        4.152338   -0.078400    2.847037
     29          1           0        5.503106   -0.172042    1.675112
     30          1           0        4.652501    1.369423    1.919832
 ---------------------------------------------------------------------

 SCF Done:  E(RB3LYP) =  -725.887041657     A.U. after    1 cycles

 The electronic state is 1-A.
 Alpha  occ. eigenvalues --  -19.16534 -19.09289 -14.36265 -14.34195 -10.31780
 Alpha  occ. eigenvalues --  -10.22464 -10.21725 -10.21023 -10.20934 -10.18186
 Alpha  occ. eigenvalues --  -10.17853 -10.17625 -10.17442 -10.17376 -10.17325
 Alpha  occ. eigenvalues --  -10.16838  -1.10993  -1.01579  -0.98770  -0.93516
 Alpha  occ. eigenvalues --   -0.84724  -0.81320  -0.76167  -0.74270  -0.72972
 Alpha  occ. eigenvalues --   -0.71738  -0.66269  -0.63072  -0.60065  -0.59358
 Alpha  occ. eigenvalues --   -0.56606  -0.54793  -0.53790  -0.50838  -0.48961
 Alpha  occ. eigenvalues --   -0.48493  -0.47819  -0.46106  -0.45311  -0.44888
 Alpha  occ. eigenvalues --   -0.43785  -0.43286  -0.42821  -0.42424  -0.40815
 Alpha  occ. eigenvalues --   -0.39660  -0.38130  -0.37258  -0.36302  -0.35964
 Alpha  occ. eigenvalues --   -0.34403  -0.34275  -0.30688  -0.28219  -0.28092
 Alpha  occ. eigenvalues --   -0.26322  -0.23235  -0.21349
 Alpha virt. eigenvalues --   -0.02710  -0.00937  -0.00071   0.00843   0.00868
 Alpha virt. eigenvalues --    0.01215   0.02285   0.02442   0.03120   0.03491
 Alpha virt. eigenvalues --    0.04090   0.04654   0.04797   0.04988   0.05678

 Mulliken charges:
               1
     1  C   -0.431897
     2  C    1.868374
     3  C   -0.991288
     4  C   -0.307423
     5  C   -0.274931
     6  C   -0.376477
     7  C   -0.303178
     8  C    0.823124
     9  H    0.120934
    10  H    0.120609
    11  H    0.121880
    12  H    0.105915
    13  H    0.290805
    14  H    0.112365
    15  N   -0.118105
    16  C   -0.838975
    17  H    0.150689
    18  H    0.180749
    19  C   -0.539326
    20  H    0.158124
    21  H    0.186115
    22  N   -0.337604
    23  H    0.288016
    24  C    0.290406
    25  O   -0.343964
    26  O   -0.193158
    27  C   -0.228844
    28  H    0.149088
    29  H    0.158185
    30  H    0.159790
 Sum of Mulliken charges =   0.00000

 Dipole moment (field-independent basis, Debye):
    X=             -2.3900    Y=             -3.0211    Z=              0.8763  Tot=              3.9505
 Quadrupole moment (field-independent basis, Debye-Ang):
   XX=           -107.1356   YY=            -85.3897   ZZ=            -93.0407
   XY=              0.2670   XZ=              5.6679   YZ=             -0.0600

  Exact polarizability: 212.773  -7.283 163.541  -7.518  -4.001 115.472
 Approx polarizability: 283.595  -7.871 282.949 -16.507 -12.028 172.271

 ESP charges:
               1
     1  C    0.209750
     2  C    0.166010
     3  C   -0.241420
     4  C   -0.091239
     5  C   -0.088320
     6  C   -0.231605
     7  C   -0.093499
     8  C   -0.168604
     9  H    0.134786
    10  H    0.080954
    11  H    0.086881
    12  H    0.120145
    13  H    0.356092
    14  H    0.141563
    15  N   -0.450426
    16  C    0.026437
    17  H    0.006137
    18  H    0.006073
    19  C    0.419223
    20  H   -0.034914
    21  H   -0.050036
    22  N   -0.812192
    23  H    0.368590
    24  C    0.927673
    25  O   -0.652509
    26  O   -0.330730
    27  C   -0.008329
    28  H    0.060090
    29  H    0.072608
    30  H    0.070812
 Sum of ESP charges =   0.00000

 Summary of Natural Population Analysis:

                                       Natural Population
                Natural  -----------------------------------------------
    Atom  No    Charge         Core      Valence    Rydberg      Total
 -----------------------------------------------------------------------
      C    1    0.15812      1.99897     3.82179    0.02112     5.84188
      C    2   -0.08885      1.99894     4.07362    0.01630     6.08885
      C    3   -0.18906      1.99908     4.17278    0.01720     6.18906
      C    4   -0.22649      1.99918     4.20883    0.01848     6.22649
      C    5   -0.20737      1.99919     4.18942    0.01875     6.20737
      C    6   -0.23663      1.99907     4.22059    0.01698     6.23663
      C    7   -0.01525      1.99905     3.99464    0.02156     6.01525
      C    8   -0.09879      1.99899     4.08302    0.01678     6.09879
      H    9    0.20660      0.00000     0.79163    0.00177     0.79340
      H   10    0.20464      0.00000     0.79388    0.00148     0.79536
      H   11    0.20459      0.00000     0.79397    0.00144     0.79541
      H   12    0.20671      0.00000     0.79144    0.00184     0.79329
      H   13    0.40366      0.00000     0.59404    0.00230     0.59634
      H   14    0.20583      0.00000     0.79240    0.00178     0.79417
      N   15   -0.54870      1.99932     5.53414    0.01524     7.54870
      C   16   -0.40330      1.99920     4.38986    0.01424     6.40330
      H   17    0.20428      0.00000     0.79309    0.00264     0.79572
      H   18    0.21598      0.00000     0.78155    0.00247     0.78402
      C   19   -0.17799      1.99927     4.15945    0.01927     6.17799
      H   20    0.19431      0.00000     0.80345    0.00224     0.80569
      H   21    0.21111      0.00000     0.78668    0.00221     0.78889
      N   22   -0.65256      1.99933     5.63426    0.01896     7.65256
      H   23    0.40013      0.00000     0.59789    0.00198     0.59987
      C   24    0.91696      1.99942     3.03488    0.04873     5.08304
      O   25   -0.65483      1.99974     6.64303    0.01206     8.65483
      O   26   -0.57932      1.99973     6.56440    0.01519     8.57932
      C   27   -0.20776      1.99926     4.19195    0.01655     6.20776
      H   28    0.18333      0.00000     0.81545    0.00122     0.81667
      H   29    0.18505      0.00000     0.81315    0.00181     0.81495
      H   30    0.18562      0.00000     0.81249    0.00189     0.81438
 =======================================================================
   * Total *    0.00000     31.98774    83.67777    0.33450   116.00000

                      1                      2                      3
                      A                      A                      A
 Frequencies --     15.4477                33.1345                46.9662
 Red. masses --      4.2626                 4.4753                 4.6970
 Frc consts  --      0.0006                 0.0029                 0.0061
 IR Inten    --      0.1689                 0.0430                 0.1004

                      4                      5                      6
                      A                      A                      A
 Frequencies --     53.8996               100.2602               118.4794
 Red. masses --      3.6342                 1.6908                 2.4209
 Frc consts  --      0.0062                 0.0100                 0.0200
 IR Inten    --      0.5400                 1.3738                 0.1086

                      7                      8                      9
                      A                      A                      A
 Frequencies --    157.1524               166.9138               217.4382
 Red. masses --      2.6643                 3.1318                 3.6076
 Frc consts  --      0.0388                 0.0514                 0.1005
 IR Inten    --      4.0847                 3.5411                11.9402

                     10                     11                     12
                      A                      A                      A
 Frequencies --    225.3731               240.7736               287.1285
 Red. masses --      3.7421                 3.7768                 3.5039
 Frc consts  --      0.1120                 0.1290                 0.1702
 IR Inten    --      1.1277                 3.9502                 8.9060

                     13                     14                     15
                      A                      A                      A
 Frequencies --    330.9207               354.0419               376.2442
 Red. masses --      4.0322                 4.5438                 1.3942
 Frc consts  --      0.2602                 0.3356                 0.1163
 IR Inten    --      8.8152                18.4176                59.5664

                     16                     17                     18
                      A                      A                      A
 Frequencies --    428.0673               481.5871               485.4382
 Red. masses --      2.8493                 1.7465                 1.7742
 Frc consts  --      0.3076                 0.2387                 0.2463
 IR Inten    --      3.9030                62.3999                33.4967

                     19                     20                     21
                      A                      A                      A
 Frequencies --    561.8497               571.0284               584.5845
 Red. masses --      5.8217                 5.8633                 3.2026
 Frc consts  --      1.0828                 1.1264                 0.6448
 IR Inten    --     13.7811                12.4775                 5.6931

                     22                     23                     24
                      A                      A                      A
 Frequencies --    613.8872               633.7438               649.1401
 Red. masses --      2.6226                 4.0567                 4.2255
 Frc consts  --      0.5823                 0.9600                 1.0491
 IR Inten    --      0.6901                 8.7919                 1.5099

                     25                     26                     27
                      A                      A                      A
 Frequencies --    749.0465               754.9087               759.2923
 Red. masses --      1.2793                 3.4286                 2.4754
 Frc consts  --      0.4229                 1.1512                 0.8409
 IR Inten    --     83.8585                 1.6353                 1.1161

                     28                     29                     30
                      A                      A                      A
 Frequencies --    777.0650               781.3048               793.8976
 Red. masses --      8.6875                 1.9249                 4.0650
 Frc consts  --      3.0907                 0.6923                 1.5095
 IR Inten    --     27.1057                 6.1654                 4.0713

                     31                     32                     33
                      A                      A                      A
 Frequencies --    807.3154               854.5163               863.5929
 Red. masses --      1.5014                 1.5036                 4.8016
 Frc consts  --      0.5766                 0.6469                 2.1099
 IR Inten    --      8.3503                 0.1866                10.2034

                     34                     35                     36
                      A                      A                      A
 Frequencies --    889.4866               939.6146               978.7984
 Red. masses --      5.0266                 1.3594                 1.2726
 Frc consts  --      2.3432                 0.7071                 0.7183
 IR Inten    --      0.1972                 0.8865                 0.0126

                     37                     38                     39
                      A                      A                      A
 Frequencies --   1017.3048              1031.8819              1033.3441
 Red. masses --      4.4394                 2.4410                 2.2431
 Frc consts  --      2.7069                 1.5314                 1.4112
 IR Inten    --      5.0982                15.6069                 7.7423

                     40                     41                     42
                      A                      A                      A
 Frequencies --   1082.4065              1102.8933              1110.1901
 Red. masses --      3.1807                 2.9060                 1.6221
 Frc consts  --      2.1956                 2.0826                 1.1779
 IR Inten    --     17.9034                77.6187                39.1423

                     43                     44                     45
                      A                      A                      A
 Frequencies --   1130.7424              1145.4810              1175.0851
 Red. masses --      2.7111                 1.5535                 1.1408
 Frc consts  --      2.0423                 1.2010                 0.9281
 IR Inten    --     73.8630                 6.0934                 1.7108

                     46                     47                     48
                      A                      A                      A
 Frequencies --   1175.6761              1207.3204              1237.1010
 Red. masses --      1.2704                 1.4904                 2.1150
 Frc consts  --      1.0346                 1.2800                 1.9071
 IR Inten    --      0.9604                53.4654                47.0289

                     49                     50                     51
                      A                      A                      A
 Frequencies --   1242.7597              1259.4890              1303.6930
 Red. masses --      1.5711                 1.7313                 1.4890
 Frc consts  --      1.4296                 1.6181                 1.4911
 IR Inten    --     19.3981                 8.3700                12.6652

                     52                     53                     54
                      A                      A                      A
 Frequencies --   1320.1156              1327.9977              1357.5921
 Red. masses --      2.3455                 1.3909                 1.7352
 Frc consts  --      2.4083                 1.4452                 1.8843
 IR Inten    --     13.6857               113.0705               128.1642

                     55                     56                     57
                      A                      A                      A
 Frequencies --   1369.4604              1381.8046              1417.1637
 Red. masses --      4.7873                 2.2137                 1.5166
 Frc consts  --      5.2899                 2.4903                 1.7945
 IR Inten    --     53.5135                88.4093                27.6818

                     58                     59                     60
                      A                      A                      A
 Frequencies --   1446.6004              1471.1330              1480.8702
 Red. masses --      2.3883                 1.2293                 2.3828
 Frc consts  --      2.9446                 1.5676                 3.0787
 IR Inten    --     16.6360                10.8284                22.5420

                     61                     62                     63
                      A                      A                      A
 Frequencies --   1482.3867              1484.9913              1490.4600
 Red. masses --      1.0538                 1.3057                 1.2252
 Frc consts  --      1.3644                 1.6964                 1.6036
 IR Inten    --      6.5999                13.8154                40.7302

                     64                     65                     66
                      A                      A                      A
 Frequencies --   1501.5063              1508.0722              1521.0852
 Red. masses --      1.0656                 1.1868                 2.8528
 Frc consts  --      1.4155                 1.5903                 3.8889
 IR Inten    --     18.2041                28.4433                 3.1058

                     67                     68                     69
                      A                      A                      A
 Frequencies --   1588.4428              1614.3965              1658.1309
 Red. masses --      5.2924                 5.7381                 6.0610
 Frc consts  --      7.8676                 8.8112                 9.8182
 IR Inten    --      2.9968                 0.6001                 3.5289

                     70                     71                     72
                      A                      A                      A
 Frequencies --   1782.7963              3006.4032              3030.6917
 Red. masses --      8.2816                 1.0607                 1.0975
 Frc consts  --     15.5084                 5.6485                 5.9394
 IR Inten    --    705.6758                21.3686                 6.0104

                     73                     74                     75
                      A                      A                      A
 Frequencies --   3049.4525              3050.2056              3108.8456
 Red. masses --      1.0389                 1.0574                 1.1001
 Frc consts  --      5.6921                 5.7961                 6.2644
 IR Inten    --     70.1679                10.7685                11.0277

                     76                     77                     78
                      A                      A                      A
 Frequencies --   3121.9723              3150.2088              3161.1269
 Red. masses --      1.1072                 1.1063                 1.0853
 Frc consts  --      6.3581                 6.4684                 6.3898
 IR Inten    --     20.2553                14.7098                 2.0104

                     79                     80                     81
                      A                      A                      A
 Frequencies --   3167.2198              3177.6809              3189.2979
 Red. masses --      1.0884                 1.0934                 1.0969
 Frc consts  --      6.4330                 6.5050                 6.5735
 IR Inten    --      3.1716                27.5340                18.2441

                     82                     83                     84
                      A                      A                      A
 Frequencies --   3245.9127              3641.7461              3676.4832
 Red. masses --      1.0964                 1.0769                 1.0804
 Frc consts  --      6.8061                 8.4150                 8.6038
 IR Inten    --      1.1760                41.3782                77.2747

 - Thermochemistry -
 -------------------
 Temperature   298.150 Kelvin.  Pressure   1.00000 Atm.
 Atom     1 has atomic number  6 and mass  12.00000

 Molecular mass:   218.10553 amu.
 Principal axes and moments of inertia in atomic units:
                           1         2         3
     Eigenvalues --  1371.585778841.258859277.67852
           X            0.99997  -0.00311   0.00646
           Y            0.00305   0.99995   0.00933
           Z           -0.00649  -0.00931   0.99994
 This molecule is an asymmetric top.
 Rotational symmetry number  1.
 Warning -- assumption of classical behavior for rotation
           may cause significant error
 Rotational temperatures (Kelvin)      0.06315     0.00980     0.00934
 Rotational constants (GHZ):           1.31581     0.20413     0.19453
 Zero-point vibrational energy     645504.7 (Joules/Mol)
                                  154.27933 (Kcal/Mol)
 Warning -- explicit consideration of  22 degrees of freedom as
           vibrations may cause significant error
 Vibrational temperatures:     22.23    47.67    67.57    77.55   144.25
          (Kelvin)            170.47   226.11   240.15   312.84   324.26
                              346.42   413.11   476.12   509.39   541.33
                              615.89   692.90   698.44   808.38   821.58
                              841.09   883.25   911.81   933.97  1077.71
                             1086.14  1092.45  1118.02  1124.12  1142.24
                             1161.55  1229.46  1242.52  1279.77  1351.89
                             1408.27  1463.67  1484.65  1486.75  1557.34
                             1586.82  1597.31  1626.88  1648.09  1690.68
                             1691.53  1737.06  1779.91  1788.05  1812.12
                             1875.72  1899.35  1910.69  1953.27  1970.35
                             1988.11  2038.98  2081.33  2116.63  2130.64
                             2132.82  2136.57  2144.44  2160.33  2169.78
                             2188.50  2285.41  2322.75  2385.68  2565.04
                             4325.54  4360.48  4387.48  4388.56  4472.93
                             4491.82  4532.44  4548.15  4556.92  4571.97
                             4588.68  4670.14  5239.65  5289.63

 Zero-point correction=                           0.245860 (Hartree/Particle)
 Thermal correction to Energy=                    0.260904
 Thermal correction to Enthalpy=                  0.261848
 Thermal correction to Gibbs Free Energy=         0.200973
 Sum of electronic and zero-point Energies=           -725.641182
 Sum of electronic and thermal Energies=              -725.626138
 Sum of electronic and thermal Enthalpies=            -725.625194
 Sum of electronic and thermal Free Energies=         -725.686069

                     E (Thermal)             CV                S
                      KCal/Mol        Cal/Mol-Kelvin    Cal/Mol-Kelvin
 Total                  163.720             56.139            128.122
 Electronic               0.000              0.000              0.000
 Translational            0.889              2.981             42.043
 Rotational               0.889              2.981             33.086
 Vibrational            161.942             50.177             52.993
 Vibration     1          0.593              1.986              7.147
 Vibration     2          0.594              1.983              5.632
 Vibration     3          0.595              1.979              4.941
 Vibration     4          0.596              1.976              4.669
 Vibration     5          0.604              1.949              3.449
 Vibration     6          0.609              1.934              3.125
 Vibration     7          0.621              1.895              2.584
 Vibration     8          0.624              1.883              2.470
 Vibration     9          0.646              1.814              1.980
 Vibration    10          0.650              1.802              1.916
 Vibration    11          0.658              1.778              1.797
 Vibration    12          0.684              1.698              1.491
 Vibration    13          0.713              1.614              1.256
 Vibration    14          0.730              1.567              1.148
 Vibration    15          0.747              1.521              1.054
 Vibration    16          0.790              1.409              0.865
 Vibration    17          0.838              1.291              0.706
 Vibration    18          0.841              1.282              0.696
 Vibration    19          0.918              1.114              0.520
 Vibration    20          0.927              1.094              0.502
 Vibration    21          0.942              1.065              0.477
 Vibration    22          0.973              1.002              0.426

 Optimization completed.
    -- Stationary point found.
 Normal termination of Gaussian 09 at Tue Jan 10 09:39:41 2023.
