 Gaussian 09, Revision D.01,
 Gaussian 09:  ES64L-G09RevD.01 24-Apr-2013

 ----------------------------------------------------------------------
 # opt=rcfc freq=noraman b3lyp/6-311+g(d,p) pop=(npa,hirshfeld,chelpg,m
 bs) geom=allcheck guess=read
 ----------------------------------------------------------------------

 Structure from the checkpoint file:  "63.chk"
 -------------------
 Title Card Required
 -------------------
 Charge =  0 Multiplicity = 1

 SCF Done:  E(RB3LYP) =  -271.849603864     A.U. after    1 cycles
 SCF Done:  E(RB3LYP) =  -271.849604148     A.U. after    6 cycles
 Optimization completed.
    -- Stationary point found.
 Normal termination of Gaussian 09 at Wed Apr 24 12:52:19 2024.

 ----------------------------------------------------------------------
 #N Geom=AllCheck Guess=TCheck SCRF=Check GenChk RB3LYP/6-311+G(d,p) Fr
 eq
 ----------------------------------------------------------------------

 Structure from the checkpoint file:  "63.chk"
 -------------------
 Title Card Required
 -------------------
 Charge =  0 Multiplicity = 1

                         Standard orientation:
 ---------------------------------------------------------------------
 Center     Atomic      Atomic             Coordinates (Angstroms)
 Number     Number       Type             X           Y           Z
 ---------------------------------------------------------------------
      1          6           0       -1.259218    0.696937   -0.221458
      2          6           0       -1.183738   -0.771188    0.199287
      3          6           0        1.183776   -0.771136    0.199283
      4          6           0        1.259185    0.696999   -0.221453
      5          6           0       -0.000036    1.449428    0.233089
      6          1           0       -1.218117   -0.850465    1.298519
      7          1           0       -2.017045   -1.347858   -0.206524
      8          1           0       -1.348424    0.747364   -1.312495
      9          1           0       -2.161631    1.152804    0.200172
     10          1           0        1.218167   -0.850420    1.298513
     11          1           0        2.017107   -1.347762   -0.206540
     12          1           0        2.161573    1.152906    0.200185
     13          1           0        1.348394    0.747437   -1.312490
     14          1           0       -0.000040    1.527877    1.328094
     15          1           0       -0.000059    2.472526   -0.154564
     16          8           0        0.000032   -1.401331   -0.283170
 ---------------------------------------------------------------------

 SCF Done:  E(RB3LYP) =  -271.849604148     A.U. after    1 cycles

 The electronic state is 1-A.
 Alpha  occ. eigenvalues --  -19.12007 -10.21353 -10.21352 -10.17151 -10.16881
 Alpha  occ. eigenvalues --  -10.16879  -1.03307  -0.80139  -0.76460  -0.64597
 Alpha  occ. eigenvalues --   -0.63802  -0.56489  -0.49792  -0.47474  -0.45570
 Alpha  occ. eigenvalues --   -0.44412  -0.42281  -0.39184  -0.38225  -0.35763
 Alpha  occ. eigenvalues --   -0.34031  -0.32847  -0.30297  -0.25529
 Alpha virt. eigenvalues --    0.00424   0.02080   0.02187   0.02790   0.04644
 Alpha virt. eigenvalues --    0.04866   0.06026   0.06217   0.06743   0.08335
 Alpha virt. eigenvalues --    0.09839   0.09925   0.10237   0.10663   0.11245

 Mulliken charges:
               1
     1  C   -0.253434
     2  C   -0.260132
     3  C   -0.260133
     4  C   -0.253436
     5  C   -0.217535
     6  H    0.125001
     7  H    0.152810
     8  H    0.149978
     9  H    0.142109
    10  H    0.125001
    11  H    0.152810
    12  H    0.142110
    13  H    0.149978
    14  H    0.143530
    15  H    0.148878
    16  O   -0.187535
 Sum of Mulliken charges =   0.00000

 Dipole moment (field-independent basis, Debye):
    X=              0.0000    Y=              1.4724    Z=              0.7223  Tot=              1.6400
 Quadrupole moment (field-independent basis, Debye-Ang):
   XX=            -35.8899   YY=            -42.0664   ZZ=            -38.9371
   XY=              0.0001   XZ=              0.0000   YZ=             -1.2658

  Exact polarizability:  67.325   0.000  62.022   0.000  -0.529  57.020
 Approx polarizability:  86.603   0.000  81.534   0.000   1.031  84.742

 ESP charges:
               1
     1  C   -0.106153
     2  C    0.283011
     3  C    0.282992
     4  C   -0.106153
     5  C    0.176553
     6  H   -0.017721
     7  H    0.011109
     8  H    0.037406
     9  H   -0.003450
    10  H   -0.017719
    11  H    0.011116
    12  H   -0.003447
    13  H    0.037405
    14  H   -0.035552
    15  H   -0.036393
    16  O   -0.513004
 Sum of ESP charges =   0.00000

 Summary of Natural Population Analysis:

                                       Natural Population
                Natural  -----------------------------------------------
    Atom  No    Charge         Core      Valence    Rydberg      Total
 -----------------------------------------------------------------------
      C    1   -0.41431      1.99929     4.40114    0.01388     6.41431
      C    2   -0.02440      1.99921     4.00233    0.02286     6.02440
      C    3   -0.02440      1.99921     4.00233    0.02286     6.02440
      C    4   -0.41431      1.99929     4.40114    0.01388     6.41431
      C    5   -0.38769      1.99929     4.37308    0.01531     6.38769
      H    6    0.15325      0.00000     0.84363    0.00312     0.84675
      H    7    0.18696      0.00000     0.81157    0.00147     0.81304
      H    8    0.19727      0.00000     0.80018    0.00254     0.80273
      H    9    0.20259      0.00000     0.79556    0.00185     0.79741
      H   10    0.15325      0.00000     0.84363    0.00312     0.84675
      H   11    0.18696      0.00000     0.81157    0.00147     0.81304
      H   12    0.20259      0.00000     0.79556    0.00185     0.79741
      H   13    0.19727      0.00000     0.80018    0.00254     0.80273
      H   14    0.18870      0.00000     0.80873    0.00257     0.81130
      H   15    0.20242      0.00000     0.79610    0.00148     0.79758
      O   16   -0.60616      1.99978     6.58264    0.02373     8.60616
 =======================================================================
   * Total *    0.00000     11.99607    35.86940    0.13453    48.00000

                      1                      2                      3
                      A                      A                      A
 Frequencies --    244.0832               249.5153               397.3160
 Red. masses --      1.7566                 2.1489                 1.7342
 Frc consts  --      0.0617                 0.0788                 0.1613
 IR Inten    --      0.3915                 4.5736                 4.1945

                      4                      5                      6
                      A                      A                      A
 Frequencies --    438.5370               466.2722               567.5003
 Red. masses --      3.7911                 2.8151                 1.5360
 Frc consts  --      0.4296                 0.3606                 0.2915
 IR Inten    --      1.8273                 0.0041                 4.0041

                      7                      8                      9
                      A                      A                      A
 Frequencies --    818.6612               819.4508               864.7791
 Red. masses --      3.5976                 1.5217                 1.4123
 Frc consts  --      1.4206                 0.6020                 0.6223
 IR Inten    --      3.6282                 1.1705                 5.0384

                     10                     11                     12
                      A                      A                      A
 Frequencies --    878.4963               881.8194               983.5075
 Red. masses --      2.8361                 2.4734                 1.2711
 Frc consts  --      1.2896                 1.1332                 0.7244
 IR Inten    --     25.8033                 0.7616                 3.8330

                     13                     14                     15
                      A                      A                      A
 Frequencies --   1017.0649              1046.7527              1061.9256
 Red. masses --      1.9692                 2.4313                 1.5728
 Frc consts  --      1.2001                 1.5696                 1.0450
 IR Inten    --     10.6958                 8.9358                18.6834

                     16                     17                     18
                      A                      A                      A
 Frequencies --   1101.5928              1175.5780              1193.1357
 Red. masses --      4.8819                 2.2175                 1.2434
 Frc consts  --      3.4905                 1.8056                 1.0429
 IR Inten    --     77.7032                 2.6611                 0.0018

                     19                     20                     21
                      A                      A                      A
 Frequencies --   1222.0593              1283.9450              1302.4322
 Red. masses --      1.6069                 1.2442                 1.1435
 Frc consts  --      1.4139                 1.2084                 1.1428
 IR Inten    --     32.7255                 5.1311                 6.9150

                     22                     23                     24
                      A                      A                      A
 Frequencies --   1325.9480              1356.0170              1373.9138
 Red. masses --      1.2547                 1.3005                 1.3465
 Frc consts  --      1.2997                 1.4089                 1.4976
 IR Inten    --      4.4836                 0.0831                 0.4312

                     25                     26                     27
                      A                      A                      A
 Frequencies --   1379.4933              1391.8217              1414.8286
 Red. masses --      1.4556                 1.3290                 1.3104
 Frc consts  --      1.6320                 1.5169                 1.5455
 IR Inten    --      1.1668                 4.6083                 6.1708

                     28                     29                     30
                      A                      A                      A
 Frequencies --   1476.3590              1484.7342              1493.1534
 Red. masses --      1.0935                 1.0865                 1.0988
 Frc consts  --      1.4043                 1.4111                 1.4434
 IR Inten    --      3.0106                 7.1062                 7.2647

                     31                     32                     33
                      A                      A                      A
 Frequencies --   1495.3096              1508.7717              2946.9530
 Red. masses --      1.0824                 1.0994                 1.0726
 Frc consts  --      1.4260                 1.4745                 5.4880
 IR Inten    --      1.3957                 3.9505                23.3642

                     34                     35                     36
                      A                      A                      A
 Frequencies --   2953.0556              3004.2397              3018.7120
 Red. masses --      1.0722                 1.0683                 1.0594
 Frc consts  --      5.5091                 5.6808                 5.6878
 IR Inten    --    105.3938                25.0424                34.6654

                     37                     38                     39
                      A                      A                      A
 Frequencies --   3019.1727              3053.8067              3057.3884
 Red. masses --      1.0612                 1.0929                 1.1034
 Frc consts  --      5.6993                 6.0053                 6.0770
 IR Inten    --     16.6573                42.8160                36.9771

                     40                     41                     42
                      A                      A                      A
 Frequencies --   3064.6197              3084.3235              3086.5851
 Red. masses --      1.1038                 1.0908                 1.0925
 Frc consts  --      6.1082                 6.1139                 6.1323
 IR Inten    --     76.8376                52.1822                30.4479

 - Thermochemistry -
 -------------------
 Temperature   298.150 Kelvin.  Pressure   1.00000 Atm.
 Atom     1 has atomic number  6 and mass  12.00000

 Molecular mass:    86.07317 amu.
 Principal axes and moments of inertia in atomic units:
                           1         2         3
     Eigenvalues --   388.62149 402.62458 699.36015
           X           -0.00004   1.00000   0.00000
           Y            0.99986   0.00004  -0.01664
           Z            0.01664   0.00000   0.99986
 This molecule is an asymmetric top.
 Rotational symmetry number  1.
 Rotational temperatures (Kelvin)      0.22287     0.21512     0.12385
 Rotational constants (GHZ):           4.64396     4.48244     2.58056
 Zero-point vibrational energy     382826.7 (Joules/Mol)
                                   91.49778 (Kcal/Mol)
 Warning -- explicit consideration of   6 degrees of freedom as
           vibrations may cause significant error
 Vibrational temperatures:    351.18   359.00   571.65   630.96   670.86
          (Kelvin)            816.51  1177.87  1179.01  1244.22  1263.96
                             1268.74  1415.05  1463.33  1506.04  1527.87
                             1584.94  1691.39  1716.65  1758.27  1847.31
                             1873.91  1907.74  1951.00  1976.75  1984.78
                             2002.52  2035.62  2124.15  2136.20  2148.31
                             2151.41  2170.78  4240.00  4248.78  4322.43
                             4343.25  4343.91  4393.74  4398.89  4409.30
                             4437.65  4440.90

 Zero-point correction=                           0.145811 (Hartree/Particle)
 Thermal correction to Energy=                    0.151272
 Thermal correction to Enthalpy=                  0.152216
 Thermal correction to Gibbs Free Energy=         0.117225
 Sum of electronic and zero-point Energies=           -271.703793
 Sum of electronic and thermal Energies=              -271.698332
 Sum of electronic and thermal Enthalpies=            -271.697388
 Sum of electronic and thermal Free Energies=         -271.732379

                     E (Thermal)             CV                S
                      KCal/Mol        Cal/Mol-Kelvin    Cal/Mol-Kelvin
 Total                   94.925             21.317             73.646
 Electronic               0.000              0.000              0.000
 Translational            0.889              2.981             39.271
 Rotational               0.889              2.981             26.195
 Vibrational             93.147             15.355              8.179
 Vibration     1          0.659              1.773              1.773
 Vibration     2          0.662              1.764              1.734
 Vibration     3          0.764              1.476              0.973
 Vibration     4          0.799              1.386              0.831
 Vibration     5          0.824              1.325              0.748
 Vibration     6          0.923              1.102              0.509

 Optimization completed.
    -- Stationary point found.
 Normal termination of Gaussian 09 at Wed Apr 24 12:52:59 2024.
