 Gaussian 09, Revision D.01,
 Gaussian 09:  ES64L-G09RevD.01 24-Apr-2013

 ---------------------------------------------------------------------
 # b3lyp/6-311+g(d,p) geom=connectivity pop=(hirshfeld,chelpg,mbs,npa)
 ---------------------------------------------------------------------

 ---------
 Table9_11
 ---------
 Symbolic Z-matrix:
 Charge =  0 Multiplicity = 1

                         Standard orientation:
 ---------------------------------------------------------------------
 Center     Atomic      Atomic             Coordinates (Angstroms)
 Number     Number       Type             X           Y           Z
 ---------------------------------------------------------------------
      1          6           0       -2.240631   -0.721701   -0.087600
      2          6           0       -2.058384    0.676984    0.099453
      3          6           0       -3.187778    1.496348    0.279101
      4          6           0       -4.444165    0.915311    0.268644
      5          6           0       -4.602839   -0.475106    0.081149
      6          6           0       -3.511226   -1.309299   -0.100484
      7          6           0       -0.025808   -0.295702   -0.148626
      8          6           0       -0.649734    0.920450    0.058167
      9          1           0       -3.074671    2.565329    0.423500
     10          1           0       -5.324127    1.533097    0.406362
     11          1           0       -5.600913   -0.898279    0.079701
     12          1           0       -3.637812   -2.376297   -0.244676
     13          1           0       -0.747872   -2.253482   -0.281491
     14          1           0       -0.175190    1.875983    0.202209
     15          7           0       -0.997192   -1.276107   -0.237392
     16          6           0        1.372377   -0.808499   -0.189004
     17          8           0        1.537607   -2.021596   -0.023651
     18          7           0        2.434138    0.029164   -0.386705
     19          6           0        2.345387    1.414572   -0.854504
     20          6           0        2.674912    2.460699    0.214200
     21          1           0        1.349850    1.579395   -1.261377
     22          1           0        3.040817    1.520862   -1.694409
     23          1           0        2.572104    3.467249   -0.202088
     24          1           0        2.007139    2.373151    1.074446
     25          1           0        3.701174    2.352976    0.573854
     26          6           0        3.774762   -0.577133   -0.302938
     27          6           0        4.250604   -0.821310    1.130599
     28          1           0        4.460689    0.097535   -0.820140
     29          1           0        3.756697   -1.523082   -0.848313
     30          1           0        5.252919   -1.259594    1.118641
     31          1           0        4.292140    0.109287    1.701990
     32          1           0        3.582712   -1.516443    1.640743
 ---------------------------------------------------------------------

 SCF Done:  E(RB3LYP) =  -689.958948116     A.U. after   16 cycles

 The electronic state is 1-A.
 Alpha  occ. eigenvalues --  -19.09009 -14.35755 -14.35046 -10.28221 -10.22039
 Alpha  occ. eigenvalues --  -10.21975 -10.21265 -10.20929 -10.17890 -10.17863
 Alpha  occ. eigenvalues --  -10.17763 -10.17729 -10.17692 -10.17565 -10.17044
 Alpha  occ. eigenvalues --  -10.16324  -1.04743  -0.98711  -0.94283  -0.84870
 Alpha  occ. eigenvalues --   -0.79506  -0.78144  -0.76068  -0.74529  -0.72962
 Alpha  occ. eigenvalues --   -0.66689  -0.65010  -0.63253  -0.60769  -0.59421
 Alpha  occ. eigenvalues --   -0.55846  -0.54288  -0.51445  -0.49425  -0.48207
 Alpha  occ. eigenvalues --   -0.46773  -0.45659  -0.45219  -0.43946  -0.43875
 Alpha  occ. eigenvalues --   -0.43455  -0.43074  -0.41831  -0.41089  -0.40180
 Alpha  occ. eigenvalues --   -0.39209  -0.38424  -0.37282  -0.36855  -0.36577
 Alpha  occ. eigenvalues --   -0.35233  -0.34624  -0.33775  -0.29087  -0.27036
 Alpha  occ. eigenvalues --   -0.25413  -0.23226  -0.21921
 Alpha virt. eigenvalues --   -0.04963  -0.00560   0.00180   0.00679   0.01074
 Alpha virt. eigenvalues --    0.01219   0.01804   0.02042   0.02502   0.03683
 Alpha virt. eigenvalues --    0.04246   0.04460   0.04893   0.05572   0.05934

 Mulliken charges:
               1
     1  C   -0.666250
     2  C    1.486168
     3  C   -1.025750
     4  C    0.057097
     5  C   -0.312480
     6  C   -0.522366
     7  C   -0.013116
     8  C    0.407274
     9  H    0.115049
    10  H    0.122248
    11  H    0.124357
    12  H    0.111608
    13  H    0.306638
    14  H    0.124068
    15  N   -0.064675
    16  C   -0.164338
    17  O   -0.346806
    18  N    0.139616
    19  C   -0.270166
    20  C   -0.454211
    21  H    0.146711
    22  H    0.153131
    23  H    0.148864
    24  H    0.154832
    25  H    0.144071
    26  C   -0.291389
    27  C   -0.347928
    28  H    0.131233
    29  H    0.172834
    30  H    0.137585
    31  H    0.127293
    32  H    0.168794
 Sum of Mulliken charges =   0.00000

 Dipole moment (field-independent basis, Debye):
    X=              1.3885    Y=              2.2565    Z=             -0.7080  Tot=              2.7425
 Quadrupole moment (field-independent basis, Debye-Ang):
   XX=            -86.4973   YY=            -93.6252   ZZ=           -100.4064
   XY=              7.9112   XZ=             -2.0441   YZ=              0.8559

 ESP charges:
               1
     1  C    0.318663
     2  C    0.156046
     3  C   -0.236480
     4  C   -0.091653
     5  C   -0.075665
     6  C   -0.288901
     7  C    0.089595
     8  C   -0.363318
     9  H    0.125156
    10  H    0.084806
    11  H    0.088843
    12  H    0.146389
    13  H    0.359639
    14  H    0.197545
    15  N   -0.505974
    16  C    0.593610
    17  O   -0.575100
    18  N   -0.433721
    19  C    0.289901
    20  C   -0.060586
    21  H   -0.056441
    22  H   -0.019575
    23  H    0.008360
    24  H   -0.010820
    25  H    0.035349
    26  C    0.280382
    27  C   -0.164569
    28  H   -0.013977
    29  H   -0.001004
    30  H    0.030942
    31  H    0.030455
    32  H    0.062103
 Sum of ESP charges =   0.00000

 Summary of Natural Population Analysis:

                                       Natural Population
                Natural  -----------------------------------------------
    Atom  No    Charge         Core      Valence    Rydberg      Total
 -----------------------------------------------------------------------
      C    1    0.16800      1.99899     3.81304    0.01997     5.83200
      C    2   -0.10329      1.99902     4.08701    0.01726     6.10329
      C    3   -0.18225      1.99907     4.16624    0.01693     6.18225
      C    4   -0.22802      1.99918     4.21035    0.01849     6.22802
      C    5   -0.20032      1.99919     4.18264    0.01849     6.20032
      C    6   -0.23329      1.99907     4.21764    0.01658     6.23329
      C    7    0.08068      1.99906     3.89827    0.02200     5.91932
      C    8   -0.24541      1.99890     4.23174    0.01478     6.24541
      H    9    0.20614      0.00000     0.79218    0.00168     0.79386
      H   10    0.20528      0.00000     0.79325    0.00147     0.79472
      H   11    0.20536      0.00000     0.79322    0.00142     0.79464
      H   12    0.21074      0.00000     0.78748    0.00178     0.78926
      H   13    0.42848      0.00000     0.56724    0.00429     0.57152
      H   14    0.21624      0.00000     0.78177    0.00199     0.78376
      N   15   -0.52510      1.99925     5.51058    0.01526     7.52510
      C   16    0.65164      1.99918     3.30888    0.04030     5.34836
      O   17   -0.66388      1.99978     6.65232    0.01179     8.66388
      N   18   -0.49708      1.99928     5.47222    0.02558     7.49708
      C   19   -0.17423      1.99928     4.15910    0.01585     6.17423
      C   20   -0.58861      1.99936     4.58122    0.00803     6.58861
      H   21    0.21119      0.00000     0.78618    0.00263     0.78881
      H   22    0.19108      0.00000     0.80708    0.00183     0.80892
      H   23    0.20433      0.00000     0.79419    0.00148     0.79567
      H   24    0.20354      0.00000     0.79457    0.00189     0.79646
      H   25    0.20087      0.00000     0.79742    0.00172     0.79913
      C   26   -0.17426      1.99929     4.15731    0.01766     6.17426
      C   27   -0.58501      1.99936     4.57763    0.00802     6.58501
      H   28    0.18675      0.00000     0.81140    0.00184     0.81325
      H   29    0.21659      0.00000     0.78119    0.00222     0.78341
      H   30    0.20162      0.00000     0.79695    0.00143     0.79838
      H   31    0.19307      0.00000     0.80513    0.00180     0.80693
      H   32    0.21914      0.00000     0.77911    0.00175     0.78086
 =======================================================================
   * Total *    0.00000     31.98724    83.69454    0.31822   116.00000

 Normal termination of Gaussian 09 at Fri Jul 23 17:40:00 2021.
