 Gaussian 09, Revision D.01,
 Gaussian 09:  ES64L-G09RevD.01 24-Apr-2013

 ----------------------------------------------------------------------
 # opt freq b3lyp/6-311+g(d,p) pop=(npa,hirshfeld,chelpg,mbs) geom=conn
 ectivity
 ----------------------------------------------------------------------

 ---------
 Figure2_3
 ---------
 Symbolic Z-matrix:
 Charge =  0 Multiplicity = 1

 SCF Done:  E(RB3LYP) =  -700.504715339     A.U. after   18 cycles
 SCF Done:  E(RB3LYP) =  -700.646276936     A.U. after   17 cycles
 SCF Done:  E(RB3LYP) =  -700.693529105     A.U. after   17 cycles
 SCF Done:  E(RB3LYP) =  -700.762723331     A.U. after   13 cycles
 SCF Done:  E(RB3LYP) =  -700.767168267     A.U. after   11 cycles
 SCF Done:  E(RB3LYP) =  -700.767206258     A.U. after    6 cycles
 SCF Done:  E(RB3LYP) =  -700.814913519     A.U. after   13 cycles
 SCF Done:  E(RB3LYP) =  -700.841077950     A.U. after   13 cycles
 SCF Done:  E(RB3LYP) =  -700.842166712     A.U. after   10 cycles
 SCF Done:  E(RB3LYP) =  -700.848356634     A.U. after   12 cycles
 SCF Done:  E(RB3LYP) =  -701.012886880     A.U. after   11 cycles
 SCF Done:  E(RB3LYP) =  -701.013413236     A.U. after   12 cycles
 SCF Done:  E(RB3LYP) =  -701.013588821     A.U. after   11 cycles
 SCF Done:  E(RB3LYP) =  -701.013646260     A.U. after   11 cycles
 SCF Done:  E(RB3LYP) =  -701.013668518     A.U. after   10 cycles
 SCF Done:  E(RB3LYP) =  -701.013673784     A.U. after   10 cycles
 SCF Done:  E(RB3LYP) =  -701.013675293     A.U. after    9 cycles
 SCF Done:  E(RB3LYP) =  -701.013675685     A.U. after    8 cycles
 SCF Done:  E(RB3LYP) =  -701.013675594     A.U. after    7 cycles
 Optimization completed.
    -- Stationary point found.
 Normal termination of Gaussian 09 at Thu Oct 14 15:06:57 2021.

 ----------------------------------------------------------------------
 #N Geom=AllCheck Guess=TCheck SCRF=Check GenChk RB3LYP/6-311+G(d,p) Fr
 eq
 ----------------------------------------------------------------------

 Structure from the checkpoint file:  "Figure2_3.chk"
 ---------
 Figure2_3
 ---------
 Charge =  0 Multiplicity = 1

                         Standard orientation:
 ---------------------------------------------------------------------
 Center     Atomic      Atomic             Coordinates (Angstroms)
 Number     Number       Type             X           Y           Z
 ---------------------------------------------------------------------
      1          6           0       -4.696516    0.387910    0.091281
      2          6           0       -4.902881    0.233160    1.606729
      3          1           0       -5.152381    1.196312    2.062827
      4          1           0       -5.723588   -0.459797    1.816588
      5          1           0       -4.002473   -0.149244    2.088924
      6          6           0       -5.969547    0.930091   -0.570633
      7          1           0       -6.240134    1.905478   -0.154546
      8          1           0       -5.845650    1.048922   -1.651688
      9          1           0       -6.814514    0.255359   -0.401824
     10          6           0       -3.516759    1.337874   -0.194968
     11          1           0       -3.476971    1.569932   -1.270908
     12          1           0       -3.620237    2.276982    0.353258
     13          6           0       -4.319689   -0.967559   -0.540248
     14          1           0       -5.025058   -1.750029   -0.251802
     15          1           0       -4.329741   -0.882910   -1.638581
     16          8           0       -3.032909   -1.410704   -0.113322
     17          8           0       -2.272306    0.770981    0.212240
     18          6           0       -2.023506   -0.468653   -0.421878
     19          1           0       -2.023700   -0.304664   -1.516469
     20          6           0       -0.691171   -1.012765    0.055219
     21          6           0        0.504424   -0.140688   -0.340085
     22          1           0       -0.583470   -2.019468   -0.360877
     23          1           0       -0.746982   -1.117926    1.143491
     24          6           0        1.842252   -0.709285    0.146105
     25          1           0        0.533166   -0.035212   -1.432625
     26          1           0        0.363753    0.866761    0.063930
     27          1           0        1.815557   -0.808682    1.238858
     28          1           0        1.971558   -1.725875   -0.247816
     29          6           0        3.050550    0.144698   -0.253969
     30          1           0        2.917393    1.162745    0.134203
     31          1           0        3.080761    0.238725   -1.347374
     32          6           0        4.389007   -0.414173    0.241868
     33          1           0        4.520453   -1.433841   -0.143200
     34          1           0        4.359417   -0.504925    1.335487
     35          6           0        5.598346    0.436897   -0.161093
     36          1           0        5.466676    1.457594    0.221414
     37          1           0        5.630790    0.525628   -1.255008
     38          6           0        6.937001   -0.118530    0.338296
     39          6           0        8.139095    0.738407   -0.069349
     40          1           0        7.069502   -1.138116   -0.044031
     41          1           0        6.905459   -0.206351    1.431219
     42          1           0        9.076687    0.315591    0.302500
     43          1           0        8.218787    0.815491   -1.158434
     44          1           0        8.053023    1.755011    0.327495
 ---------------------------------------------------------------------

 SCF Done:  E(RB3LYP) =  -701.013675594     A.U. after    1 cycles

 The electronic state is 1-A.
 Alpha  occ. eigenvalues --  -19.12975 -19.12920 -10.26738 -10.22060 -10.22020
 Alpha  occ. eigenvalues --  -10.18974 -10.17013 -10.16375 -10.16247 -10.16151
 Alpha  occ. eigenvalues --  -10.16095 -10.16043 -10.16028 -10.16013 -10.15769
 Alpha  occ. eigenvalues --  -10.15580  -1.07912  -1.00956  -0.83467  -0.81120
 Alpha  occ. eigenvalues --   -0.79194  -0.76223  -0.72592  -0.69405  -0.68932
 Alpha  occ. eigenvalues --   -0.68470  -0.65271  -0.61829  -0.59027  -0.57692
 Alpha  occ. eigenvalues --   -0.57400  -0.55799  -0.51128  -0.49303  -0.48841
 Alpha  occ. eigenvalues --   -0.48041  -0.46825  -0.45951  -0.44929  -0.43426
 Alpha  occ. eigenvalues --   -0.43015  -0.42559  -0.41741  -0.41028  -0.39905
 Alpha  occ. eigenvalues --   -0.39317  -0.39000  -0.38174  -0.37812  -0.36963
 Alpha  occ. eigenvalues --   -0.35948  -0.35693  -0.35320  -0.34207  -0.33521
 Alpha  occ. eigenvalues --   -0.33361  -0.32520  -0.32452  -0.32300  -0.32109
 Alpha  occ. eigenvalues --   -0.31948  -0.30328  -0.27603  -0.26437
 Alpha virt. eigenvalues --   -0.00029   0.00997   0.01452   0.01806   0.02082
 Alpha virt. eigenvalues --    0.02470   0.02706   0.02956   0.03617   0.04179
 Alpha virt. eigenvalues --    0.04299   0.04555   0.05156   0.05381   0.06023

 Mulliken charges:
               1
     1  C    0.278806
     2  C   -0.414171
     3  H    0.136869
     4  H    0.136880
     5  H    0.180362
     6  C   -0.468955
     7  H    0.144352
     8  H    0.140554
     9  H    0.144114
    10  C   -0.307245
    11  H    0.136302
    12  H    0.157817
    13  C   -0.262614
    14  H    0.154603
    15  H    0.132778
    16  O   -0.067333
    17  O   -0.058356
    18  C   -0.462033
    19  H    0.130241
    20  C   -0.321226
    21  C   -0.232994
    22  H    0.157125
    23  H    0.172246
    24  C   -0.066261
    25  H    0.134148
    26  H    0.164778
    27  H    0.143596
    28  H    0.140927
    29  C   -0.132268
    30  H    0.143531
    31  H    0.140525
    32  C   -0.186442
    33  H    0.139237
    34  H    0.139945
    35  C   -0.440559
    36  H    0.138407
    37  H    0.137829
    38  C   -0.246519
    39  C   -0.629626
    40  H    0.134613
    41  H    0.134938
    42  H    0.136986
    43  H    0.131926
    44  H    0.132169
 Sum of Mulliken charges =   0.00000

 Dipole moment (field-independent basis, Debye):
    X=             -1.2106    Y=              0.6667    Z=             -1.0872  Tot=              1.7584
 Quadrupole moment (field-independent basis, Debye-Ang):
   XX=            -95.6999   YY=           -107.1516   ZZ=           -104.1788
   XY=             -4.1024   XZ=              3.1976   YZ=              0.9424

  Exact polarizability: 224.042  -1.341 156.626   0.611  -2.790 152.792
 Approx polarizability: 236.931  -1.232 234.917   1.273  -1.770 233.979

 ESP charges:
               1
     1  C    0.419482
     2  C   -0.190202
     3  H    0.026860
     4  H    0.028336
     5  H    0.047669
     6  C   -0.444898
     7  H    0.095023
     8  H    0.086183
     9  H    0.086821
    10  C    0.087147
    11  H   -0.014663
    12  H    0.051282
    13  C    0.198513
    14  H    0.026915
    15  H   -0.036329
    16  O   -0.530393
    17  O   -0.462540
    18  C    0.585634
    19  H   -0.005132
    20  C   -0.287429
    21  C    0.128741
    22  H    0.062087
    23  H    0.096762
    24  C    0.094125
    25  H   -0.043875
    26  H   -0.031422
    27  H   -0.028423
    28  H   -0.026043
    29  C    0.028935
    30  H   -0.016363
    31  H   -0.020717
    32  C    0.003309
    33  H   -0.019644
    34  H   -0.017538
    35  C    0.054523
    36  H   -0.024076
    37  H   -0.022935
    38  C    0.188769
    39  C   -0.179713
    40  H   -0.046765
    41  H   -0.046205
    42  H    0.037612
    43  H    0.029936
    44  H    0.030640
 Sum of ESP charges =   0.00000

 Summary of Natural Population Analysis:

                                       Natural Population
                Natural  -----------------------------------------------
    Atom  No    Charge         Core      Valence    Rydberg      Total
 -----------------------------------------------------------------------
      C    1   -0.14280      1.99917     4.12854    0.01509     6.14280
      C    2   -0.57670      1.99929     4.56387    0.01354     6.57670
      H    3    0.19809      0.00000     0.80059    0.00132     0.80191
      H    4    0.19835      0.00000     0.80033    0.00132     0.80165
      H    5    0.22125      0.00000     0.77662    0.00213     0.77875
      C    6   -0.57597      1.99928     4.56463    0.01206     6.57597
      H    7    0.20637      0.00000     0.79217    0.00146     0.79363
      H    8    0.20145      0.00000     0.79696    0.00159     0.79855
      H    9    0.20651      0.00000     0.79203    0.00146     0.79349
      C   10   -0.01849      1.99905     3.99516    0.02428     6.01849
      H   11    0.16438      0.00000     0.83326    0.00236     0.83562
      H   12    0.19193      0.00000     0.80658    0.00149     0.80807
      C   13   -0.01851      1.99905     3.99512    0.02434     6.01851
      H   14    0.19205      0.00000     0.80643    0.00152     0.80795
      H   15    0.16389      0.00000     0.83375    0.00236     0.83611
      O   16   -0.60698      1.99975     6.58808    0.01915     8.60698
      O   17   -0.60985      1.99975     6.59142    0.01868     8.60985
      C   18    0.43603      1.99917     3.52540    0.03941     5.56397
      H   19    0.13526      0.00000     0.86150    0.00324     0.86474
      C   20   -0.40269      1.99920     4.38637    0.01711     6.40269
      C   21   -0.38013      1.99927     4.36711    0.01375     6.38013
      H   22    0.20858      0.00000     0.78933    0.00209     0.79142
      H   23    0.21078      0.00000     0.78651    0.00271     0.78922
      C   24   -0.37426      1.99928     4.36140    0.01358     6.37426
      H   25    0.18703      0.00000     0.81076    0.00221     0.81297
      H   26    0.20584      0.00000     0.79188    0.00228     0.79416
      H   27    0.18996      0.00000     0.80770    0.00234     0.81004
      H   28    0.18724      0.00000     0.81034    0.00242     0.81276
      C   29   -0.37567      1.99928     4.36215    0.01424     6.37567
      H   30    0.18923      0.00000     0.80830    0.00247     0.81077
      H   31    0.18757      0.00000     0.81001    0.00242     0.81243
      C   32   -0.37702      1.99928     4.36320    0.01454     6.37702
      H   33    0.18795      0.00000     0.80956    0.00249     0.81205
      H   34    0.18844      0.00000     0.80907    0.00249     0.81156
      C   35   -0.37886      1.99928     4.36503    0.01455     6.37886
      H   36    0.18782      0.00000     0.80983    0.00235     0.81218
      H   37    0.18743      0.00000     0.81022    0.00235     0.81257
      C   38   -0.38247      1.99932     4.37001    0.01314     6.38247
      C   39   -0.57248      1.99938     4.56397    0.00914     6.57248
      H   40    0.18749      0.00000     0.81022    0.00229     0.81251
      H   41    0.18767      0.00000     0.81004    0.00229     0.81233
      H   42    0.19897      0.00000     0.79981    0.00122     0.80103
      H   43    0.19256      0.00000     0.80572    0.00172     0.80744
      H   44    0.19272      0.00000     0.80556    0.00172     0.80728
 =======================================================================
   * Total *    0.00000     31.98881    95.67652    0.33467   128.00000

                      1                      2                      3
                      A                      A                      A
 Frequencies --     22.6280                33.7829                43.0944
 Red. masses --      3.7553                 3.5674                 1.6688
 Frc consts  --      0.0011                 0.0024                 0.0018
 IR Inten    --      0.0651                 0.2239                 0.1050

                      4                      5                      6
                      A                      A                      A
 Frequencies --     57.1246                83.6812                95.3752
 Red. masses --      3.4972                 3.4107                 1.6145
 Frc consts  --      0.0067                 0.0141                 0.0087
 IR Inten    --      0.2210                 0.2548                 0.0173

                      7                      8                      9
                      A                      A                      A
 Frequencies --    110.4590               137.1517               149.7718
 Red. masses --      3.0108                 2.3009                 1.9900
 Frc consts  --      0.0216                 0.0255                 0.0263
 IR Inten    --      0.1165                 0.1566                 0.0222

                     10                     11                     12
                      A                      A                      A
 Frequencies --    161.6034               168.0148               204.5289
 Red. masses --      2.2367                 3.7432                 1.0420
 Frc consts  --      0.0344                 0.0623                 0.0257
 IR Inten    --      0.0944                 0.1637                 0.0282

                     13                     14                     15
                      A                      A                      A
 Frequencies --    208.5979               222.7950               236.5691
 Red. masses --      2.4029                 3.7456                 1.3156
 Frc consts  --      0.0616                 0.1095                 0.0434
 IR Inten    --      0.3855                 2.8478                 0.1057

                     16                     17                     18
                      A                      A                      A
 Frequencies --    243.3377               266.3504               291.8202
 Red. masses --      1.1317                 2.9406                 2.2897
 Frc consts  --      0.0395                 0.1229                 0.1149
 IR Inten    --      0.0009                 5.0545                 0.3563

                     19                     20                     21
                      A                      A                      A
 Frequencies --    317.1153               338.8265               381.7598
 Red. masses --      2.6767                 2.6356                 3.0439
 Frc consts  --      0.1586                 0.1783                 0.2614
 IR Inten    --      1.1517                 1.0262                 2.3091

                     22                     23                     24
                      A                      A                      A
 Frequencies --    413.5337               417.6094               447.8900
 Red. masses --      2.1697                 1.9070                 2.7856
 Frc consts  --      0.2186                 0.1960                 0.3292
 IR Inten    --      1.2077                 1.0052                 2.4381

                     25                     26                     27
                      A                      A                      A
 Frequencies --    485.9389               512.1440               529.2337
 Red. masses --      3.4120                 4.5807                 3.6349
 Frc consts  --      0.4747                 0.7079                 0.5998
 IR Inten    --      1.7256                 2.3716                 1.1264

                     28                     29                     30
                      A                      A                      A
 Frequencies --    586.5018               666.1933               733.1800
 Red. masses --      3.4328                 4.4069                 1.0598
 Frc consts  --      0.6957                 1.1523                 0.3356
 IR Inten    --      1.9719                 7.1313                 4.1504

                     31                     32                     33
                      A                      A                      A
 Frequencies --    736.9430               753.7394               789.7889
 Red. masses --      1.0868                 1.1641                 3.3354
 Frc consts  --      0.3478                 0.3896                 1.2258
 IR Inten    --      0.0899                 0.3902                 3.6336

                     34                     35                     36
                      A                      A                      A
 Frequencies --    792.5408               848.6665               896.7327
 Red. masses --      1.3075                 1.4938                 1.9526
 Frc consts  --      0.4839                 0.6339                 0.9251
 IR Inten    --      4.0734                 6.7200                 1.6613

                     37                     38                     39
                      A                      A                      A
 Frequencies --    900.6653               907.6218               924.2418
 Red. masses --      1.7429                 1.8010                 2.0292
 Frc consts  --      0.8330                 0.8741                 1.0213
 IR Inten    --      2.5612                15.1922                11.0108

                     40                     41                     42
                      A                      A                      A
 Frequencies --    942.3497               954.1435               970.2889
 Red. masses --      1.8584                 1.4108                 1.7438
 Frc consts  --      0.9723                 0.7567                 0.9673
 IR Inten    --     12.7365                 1.5142                 9.2792

                     43                     44                     45
                      A                      A                      A
 Frequencies --    978.6424              1001.5829              1009.8805
 Red. masses --      1.7710                 3.8886                 3.1173
 Frc consts  --      0.9993                 2.2984                 1.8731
 IR Inten    --     25.6335                11.6586                18.1740

                     46                     47                     48
                      A                      A                      A
 Frequencies --   1025.6763              1030.0227              1039.2134
 Red. masses --      2.6735                 2.4846                 1.2226
 Frc consts  --      1.6571                 1.5531                 0.7779
 IR Inten    --     18.9947                13.9067                 6.6990

                     49                     50                     51
                      A                      A                      A
 Frequencies --   1048.5874              1055.3806              1065.6384
 Red. masses --      2.5855                 2.2830                 2.2289
 Frc consts  --      1.6750                 1.4982                 1.4913
 IR Inten    --      4.7226                 9.9927                 0.3720

                     52                     53                     54
                      A                      A                      A
 Frequencies --   1066.8056              1074.6165              1097.8460
 Red. masses --      2.4702                 2.4790                 2.1875
 Frc consts  --      1.6564                 1.6867                 1.5534
 IR Inten    --      3.4618                 3.6633                29.8165

                     55                     56                     57
                      A                      A                      A
 Frequencies --   1135.5009              1146.1001              1180.6454
 Red. masses --      3.1618                 2.7227                 2.1006
 Frc consts  --      2.4019                 2.1071                 1.7252
 IR Inten    --    161.5101                93.7489                55.5381

                     58                     59                     60
                      A                      A                      A
 Frequencies --   1208.0584              1214.5584              1234.3017
 Red. masses --      2.4425                 1.8057                 1.4330
 Frc consts  --      2.1002                 1.5694                 1.2863
 IR Inten    --      0.6426                 5.4378                 2.9037

                     61                     62                     63
                      A                      A                      A
 Frequencies --   1241.3885              1252.0213              1261.8954
 Red. masses --      1.5818                 1.6769                 1.5398
 Frc consts  --      1.4362                 1.5487                 1.4447
 IR Inten    --      2.1352                 5.5618                 3.1114

                     64                     65                     66
                      A                      A                      A
 Frequencies --   1282.8382              1295.9681              1301.7328
 Red. masses --      1.3647                 1.3624                 1.3936
 Frc consts  --      1.3233                 1.3481                 1.3914
 IR Inten    --      1.0460                 0.2865                 3.5905

                     67                     68                     69
                      A                      A                      A
 Frequencies --   1323.9431              1327.1153              1328.7089
 Red. masses --      1.2706                 1.1735                 1.0573
 Frc consts  --      1.3122                 1.2177                 1.0998
 IR Inten    --      1.2491                 4.1452                 0.4829

                     70                     71                     72
                      A                      A                      A
 Frequencies --   1337.0878              1340.0474              1341.9709
 Red. masses --      1.3704                 1.0874                 1.1099
 Frc consts  --      1.4435                 1.1505                 1.1777
 IR Inten    --      8.2943                 0.3327                 0.5303

                     73                     74                     75
                      A                      A                      A
 Frequencies --   1364.2527              1365.2089              1390.7021
 Red. masses --      1.2069                 1.3491                 1.4015
 Frc consts  --      1.3235                 1.4815                 1.5970
 IR Inten    --      0.2976                 1.3623                 6.3785

                     76                     77                     78
                      A                      A                      A
 Frequencies --   1396.0980              1398.8136              1400.8368
 Red. masses --      1.2810                 1.2694                 1.4058
 Frc consts  --      1.4711                 1.4635                 1.6254
 IR Inten    --      8.9304                 6.5994                 1.6351

                     79                     80                     81
                      A                      A                      A
 Frequencies --   1401.6721              1405.7266              1413.5425
 Red. masses --      1.4821                 1.5254                 1.2564
 Frc consts  --      1.7156                 1.7759                 1.4791
 IR Inten    --      3.2911                 3.8617                 2.5839

                     82                     83                     84
                      A                      A                      A
 Frequencies --   1427.1921              1432.4663              1480.8516
 Red. masses --      1.3534                 1.5323                 1.0853
 Frc consts  --      1.6242                 1.8525                 1.4022
 IR Inten    --     54.8170                11.8794                 3.0648

                     85                     86                     87
                      A                      A                      A
 Frequencies --   1485.6521              1485.7627              1486.8824
 Red. masses --      1.0618                 1.0747                 1.0751
 Frc consts  --      1.3808                 1.3978                 1.4004
 IR Inten    --      0.5896                 0.1458                 0.6213

                     88                     89                     90
                      A                      A                      A
 Frequencies --   1487.9143              1490.4017              1492.0688
 Red. masses --      1.0538                 1.0677                 1.0765
 Frc consts  --      1.3746                 1.3974                 1.4120
 IR Inten    --      0.1220                 0.1923                 4.7171

                     91                     92                     93
                      A                      A                      A
 Frequencies --   1495.2466              1499.5101              1503.2852
 Red. masses --      1.0739                 1.0398                 1.0838
 Frc consts  --      1.4146                 1.3775                 1.4430
 IR Inten    --      0.1211                 8.1134                 1.7194

                     94                     95                     96
                      A                      A                      A
 Frequencies --   1504.3081              1509.1427              1510.9266
 Red. masses --      1.0571                 1.0911                 1.0939
 Frc consts  --      1.4094                 1.4641                 1.4713
 IR Inten    --      7.3155                 9.5935                 0.0121

                     97                     98                     99
                      A                      A                      A
 Frequencies --   1512.9947              1516.0812              2903.0450
 Red. masses --      1.0594                 1.0986                 1.0812
 Frc consts  --      1.4288                 1.4877                 5.3685
 IR Inten    --     16.6455                13.8026                54.5511

                    100                    101                    102
                      A                      A                      A
 Frequencies --   2958.2719              2968.3298              2991.2874
 Red. masses --      1.0700                 1.0704                 1.0574
 Frc consts  --      5.5171                 5.5567                 5.5744
 IR Inten    --     20.9503               101.8597                 1.3559

                    103                    104                    105
                      A                      A                      A
 Frequencies --   2992.7966              2995.1898              2999.7454
 Red. masses --      1.0579                 1.0584                 1.0641
 Frc consts  --      5.5828                 5.5945                 5.6418
 IR Inten    --      0.1631                 0.9051                 2.4980

                    106                    107                    108
                      A                      A                      A
 Frequencies --   3004.4612              3007.4801              3009.4850
 Red. masses --      1.0687                 1.0917                 1.0675
 Frc consts  --      5.6837                 5.8176                 5.6962
 IR Inten    --     17.2539                11.9507               118.7353

                    109                    110                    111
                      A                      A                      A
 Frequencies --   3013.4890              3015.3512              3017.3684
 Red. masses --      1.0946                 1.0350                 1.0356
 Frc consts  --      5.8564                 5.5445                 5.5554
 IR Inten    --     17.2027                35.2751                52.5223

                    112                    113                    114
                      A                      A                      A
 Frequencies --   3023.7809              3023.9633              3035.6023
 Red. masses --      1.1000                 1.0385                 1.0742
 Frc consts  --      5.9256                 5.5950                 5.8320
 IR Inten    --      5.5444                29.1575                13.0321

                    115                    116                    117
                      A                      A                      A
 Frequencies --   3037.8555              3049.3133              3057.7483
 Red. masses --      1.0882                 1.1024                 1.0994
 Frc consts  --      5.9167                 6.0394                 6.0562
 IR Inten    --     15.1916                75.3203                47.6708

                    118                    119                    120
                      A                      A                      A
 Frequencies --   3075.4975              3077.1570              3077.9256
 Red. masses --      1.0996                 1.0991                 1.1024
 Frc consts  --      6.1282                 6.1320                 6.1532
 IR Inten    --      0.4258                 7.5171                69.8758

                    121                    122                    123
                      A                      A                      A
 Frequencies --   3078.2636              3081.7341              3081.7742
 Red. masses --      1.0979                 1.1010                 1.1038
 Frc consts  --      6.1295                 6.1608                 6.1763
 IR Inten    --      1.6513                46.6783                54.3991

                    124                    125                    126
                      A                      A                      A
 Frequencies --   3083.0583              3083.3283              3117.7907
 Red. masses --      1.0966                 1.0974                 1.0984
 Frc consts  --      6.1412                 6.1467                 6.2906
 IR Inten    --     67.1589                85.8657                14.9151

 - Thermochemistry -
 -------------------
 Temperature   298.150 Kelvin.  Pressure   1.00000 Atm.
 Atom     1 has atomic number  6 and mass  12.00000

 Molecular mass:   228.20893 amu.
 Principal axes and moments of inertia in atomic units:
                           1         2         3
     Eigenvalues --   862.39314********************
           X            1.00000  -0.00113   0.00000
           Y            0.00113   0.99960  -0.02819
           Z            0.00003   0.02819   0.99960
 This molecule is an asymmetric top.
 Rotational symmetry number  1.
 Warning -- assumption of classical behavior for rotation
           may cause significant error
 Rotational temperatures (Kelvin)      0.10043     0.00531     0.00522
 Rotational constants (GHZ):           2.09271     0.11063     0.10882
 Zero-point vibrational energy    1058400.5 (Joules/Mol)
                                  252.96379 (Kcal/Mol)
 Warning -- explicit consideration of  28 degrees of freedom as
           vibrations may cause significant error
 Vibrational temperatures:     32.56    48.61    62.00    82.19   120.40
          (Kelvin)            137.22   158.93   197.33   215.49   232.51
                              241.74   294.27   300.13   320.55   340.37
                              350.11   383.22   419.86   456.26   487.50
                              549.27   594.98   600.85   644.41   699.16
                              736.86   761.45   843.84   958.50  1054.88
                             1060.30  1084.46  1136.33  1140.29  1221.04
                             1290.20  1295.85  1305.86  1329.78  1355.83
                             1372.80  1396.03  1408.05  1441.05  1452.99
                             1475.72  1481.97  1495.19  1508.68  1518.46
                             1533.21  1534.89  1546.13  1579.55  1633.73
                             1648.98  1698.68  1738.12  1747.48  1775.88
                             1786.08  1801.38  1815.58  1845.72  1864.61
                             1872.90  1904.86  1909.42  1911.71  1923.77
                             1928.03  1930.79  1962.85  1964.23  2000.91
                             2008.67  2012.58  2015.49  2016.69  2022.52
                             2033.77  2053.41  2061.00  2130.61  2137.52
                             2137.68  2139.29  2140.77  2144.35  2146.75
                             2151.32  2157.46  2162.89  2164.36  2171.32
                             2173.88  2176.86  2181.30  4176.83  4256.29
                             4270.76  4303.79  4305.96  4309.40  4315.96
                             4322.74  4327.09  4329.97  4335.73  4338.41
                             4341.31  4350.54  4350.80  4367.55  4370.79
                             4387.28  4399.41  4424.95  4427.34  4428.44
                             4428.93  4433.92  4433.98  4435.83  4436.22
                             4485.80

 Zero-point correction=                           0.403123 (Hartree/Particle)
 Thermal correction to Energy=                    0.422223
 Thermal correction to Enthalpy=                  0.423167
 Thermal correction to Gibbs Free Energy=         0.354442
 Sum of electronic and zero-point Energies=           -700.610552
 Sum of electronic and thermal Energies=              -700.591453
 Sum of electronic and thermal Enthalpies=            -700.590508
 Sum of electronic and thermal Free Energies=         -700.659234

                     E (Thermal)             CV                S
                      KCal/Mol        Cal/Mol-Kelvin    Cal/Mol-Kelvin
 Total                  264.949             71.214            144.644
 Electronic               0.000              0.000              0.000
 Translational            0.889              2.981             42.177
 Rotational               0.889              2.981             33.811
 Vibrational            263.171             65.253             68.655
 Vibration     1          0.593              1.985              6.389
 Vibration     2          0.594              1.983              5.594
 Vibration     3          0.595              1.980              5.112
 Vibration     4          0.596              1.975              4.554
 Vibration     5          0.601              1.960              3.803
 Vibration     6          0.603              1.952              3.547
 Vibration     7          0.606              1.941              3.261
 Vibration     8          0.614              1.916              2.843
 Vibration     9          0.618              1.903              2.675
 Vibration    10          0.622              1.889              2.531
 Vibration    11          0.625              1.882              2.458
 Vibration    12          0.640              1.833              2.092
 Vibration    13          0.642              1.828              2.056
 Vibration    14          0.648              1.806              1.936
 Vibration    15          0.655              1.785              1.829
 Vibration    16          0.659              1.774              1.778
 Vibration    17          0.672              1.735              1.620
 Vibration    18          0.687              1.689              1.463
 Vibration    19          0.704              1.641              1.325
 Vibration    20          0.719              1.598              1.218
 Vibration    21          0.751              1.509              1.032
 Vibration    22          0.777              1.441              0.914
 Vibration    23          0.781              1.432              0.900
 Vibration    24          0.807              1.366              0.802
 Vibration    25          0.842              1.281              0.694
 Vibration    26          0.867              1.223              0.628
 Vibration    27          0.884              1.185              0.589
 Vibration    28          0.944              1.061              0.473

 Optimization completed.
    -- Stationary point found.
 Normal termination of Gaussian 09 at Thu Oct 14 15:36:37 2021.
