 Gaussian 09, Revision D.01,
 Gaussian 09:  ES64L-G09RevD.01 24-Apr-2013

 ----------------------------------------------------------------------
 # opt=rcfc freq=noraman b3lyp/6-311+g(d,p) geom=allcheck guess=read po
 p=(hirshfeld,chelpg,npa,mbs)
 ----------------------------------------------------------------------

 Structure from the checkpoint file:  "Chart4_10_fixed.chk"
 -------------------
 Title Card Required
 -------------------
 Charge =  0 Multiplicity = 1

 SCF Done:  E(RB3LYP) =  -327.012432738     A.U. after    1 cycles
 SCF Done:  E(RB3LYP) =  -327.012511048     A.U. after   11 cycles
 SCF Done:  E(RB3LYP) =  -327.012676769     A.U. after   11 cycles
 SCF Done:  E(RB3LYP) =  -327.012898079     A.U. after   12 cycles
 SCF Done:  E(RB3LYP) =  -327.013237793     A.U. after   12 cycles
 SCF Done:  E(RB3LYP) =  -327.013367726     A.U. after   11 cycles
 SCF Done:  E(RB3LYP) =  -327.013250122     A.U. after   12 cycles
 SCF Done:  E(RB3LYP) =  -327.013414788     A.U. after   11 cycles
 SCF Done:  E(RB3LYP) =  -327.013428792     A.U. after    9 cycles
 SCF Done:  E(RB3LYP) =  -327.013430293     A.U. after    9 cycles
 SCF Done:  E(RB3LYP) =  -327.013430917     A.U. after    9 cycles
 SCF Done:  E(RB3LYP) =  -327.013431289     A.U. after    9 cycles
 SCF Done:  E(RB3LYP) =  -327.013431347     A.U. after    8 cycles
 Optimization completed.
    -- Stationary point found.
 Normal termination of Gaussian 09 at Thu Apr 20 15:59:16 2023.

 ----------------------------------------------------------------------
 #N Geom=AllCheck Guess=TCheck SCRF=Check GenChk RB3LYP/6-311+G(d,p) Fr
 eq
 ----------------------------------------------------------------------

 Structure from the checkpoint file:  "Chart4_10_fixed.chk"
 -------------------
 Title Card Required
 -------------------
 Charge =  0 Multiplicity = 1

                         Standard orientation:
 ---------------------------------------------------------------------
 Center     Atomic      Atomic             Coordinates (Angstroms)
 Number     Number       Type             X           Y           Z
 ---------------------------------------------------------------------
      1          6           0        1.198440   -1.132204    0.000049
      2          6           0        1.157350    0.265894    0.000034
      3          6           0       -1.157346    0.265898   -0.000029
      4          6           0       -1.198439   -1.132205   -0.000048
      5          6           0       -0.000002   -1.837230   -0.000001
      6          1           0        2.149806   -1.651097    0.000087
      7          1           0       -2.149807   -1.651095   -0.000089
      8          1           0       -0.000001   -2.921935   -0.000002
      9          7           0        0.000000    0.941181    0.000005
     10          6           0        2.415936    1.094719   -0.000024
     11          1           0        2.440081    1.744614    0.878861
     12          1           0        3.311655    0.470867    0.000541
     13          1           0        2.440601    1.743677   -0.879599
     14          6           0       -2.415936    1.094720    0.000019
     15          1           0       -2.439941    1.744771   -0.878752
     16          1           0       -3.311657    0.470868   -0.000792
     17          1           0       -2.440744    1.743510    0.879714
 ---------------------------------------------------------------------

 SCF Done:  E(RB3LYP) =  -327.013431347     A.U. after    1 cycles

 The electronic state is 1-A.
 Alpha  occ. eigenvalues --  -14.30274 -10.21601 -10.21601 -10.19197 -10.17869
 Alpha  occ. eigenvalues --  -10.17867 -10.16554 -10.16554  -0.94640  -0.80515
 Alpha  occ. eigenvalues --   -0.79801  -0.72400  -0.68971  -0.61402  -0.60190
 Alpha  occ. eigenvalues --   -0.50939  -0.49639  -0.45088  -0.43977  -0.41901
 Alpha  occ. eigenvalues --   -0.41640  -0.41620  -0.38549  -0.38134  -0.36531
 Alpha  occ. eigenvalues --   -0.36075  -0.28675  -0.25682  -0.25313
 Alpha virt. eigenvalues --   -0.03497  -0.01622   0.00113   0.01550   0.01952
 Alpha virt. eigenvalues --    0.03806   0.04413   0.04766   0.05500   0.06522
 Alpha virt. eigenvalues --    0.07066   0.07232   0.07978   0.08459   0.10195

 Mulliken charges:
               1
     1  C    0.143982
     2  C   -0.161885
     3  C   -0.161891
     4  C    0.143990
     5  C   -0.483617
     6  H    0.121799
     7  H    0.121799
     8  H    0.129053
     9  N   -0.000749
    10  C   -0.372248
    11  H    0.157338
    12  H    0.131320
    13  H    0.157351
    14  C   -0.372250
    15  H    0.157337
    16  H    0.131320
    17  H    0.157353
 Sum of Mulliken charges =   0.00000

 Dipole moment (field-independent basis, Debye):
    X=              0.0000    Y=             -1.5305    Z=              0.0000  Tot=              1.5305
 Quadrupole moment (field-independent basis, Debye-Ang):
   XX=            -42.6639   YY=            -47.7545   ZZ=            -50.8628
   XY=              0.0000   XZ=             -0.0003   YZ=              0.0000

  Exact polarizability: 109.953   0.000  98.185  -0.001   0.000  56.907
 Approx polarizability: 159.082   0.000 154.947  -0.001   0.001  85.673

 ESP charges:
               1
     1  C   -0.478561
     2  C    0.670213
     3  C    0.670216
     4  C   -0.478561
     5  C    0.201632
     6  H    0.149505
     7  H    0.149505
     8  H    0.056702
     9  N   -0.714050
    10  C   -0.467584
    11  H    0.122676
    12  H    0.108935
    13  H    0.122673
    14  C   -0.467582
    15  H    0.122682
    16  H    0.108935
    17  H    0.122666
 Sum of ESP charges =   0.00000

 Summary of Natural Population Analysis:

                                       Natural Population
                Natural  -----------------------------------------------
    Atom  No    Charge         Core      Valence    Rydberg      Total
 -----------------------------------------------------------------------
      C    1   -0.25755      1.99903     4.24237    0.01615     6.25755
      C    2    0.22780      1.99912     3.74857    0.02451     5.77220
      C    3    0.22780      1.99912     3.74857    0.02451     5.77220
      C    4   -0.25755      1.99903     4.24237    0.01615     6.25755
      C    5   -0.15503      1.99916     4.13715    0.01872     6.15503
      H    6    0.20937      0.00000     0.78907    0.00155     0.79063
      H    7    0.20937      0.00000     0.78907    0.00155     0.79063
      H    8    0.20696      0.00000     0.79140    0.00164     0.79304
      N    9   -0.49160      1.99928     5.46851    0.02380     7.49160
      C   10   -0.60022      1.99930     4.59021    0.01071     6.60022
      H   11    0.22037      0.00000     0.77790    0.00173     0.77963
      H   12    0.19969      0.00000     0.79915    0.00116     0.80031
      H   13    0.22037      0.00000     0.77790    0.00173     0.77963
      C   14   -0.60022      1.99930     4.59021    0.01071     6.60022
      H   15    0.22037      0.00000     0.77789    0.00173     0.77963
      H   16    0.19969      0.00000     0.79915    0.00116     0.80031
      H   17    0.22036      0.00000     0.77790    0.00173     0.77964
 =======================================================================
   * Total *    0.00000     15.99336    41.84739    0.15925    58.00000

                      1                      2                      3
                      A                      A                      A
 Frequencies --     48.8135                57.4014               195.7136
 Red. masses --      1.0295                 1.0508                 2.8679
 Frc consts  --      0.0014                 0.0020                 0.0647
 IR Inten    --      0.0000                 0.8092                 0.0000

                      4                      5                      6
                      A                      A                      A
 Frequencies --    206.0421               281.8504               420.8867
 Red. masses --      3.2821                 2.4898                 2.5287
 Frc consts  --      0.0821                 0.1165                 0.2639
 IR Inten    --      9.3498                 1.8016                 2.3782

                      7                      8                      9
                      A                      A                      A
 Frequencies --    440.4210               544.9267               562.3304
 Red. masses --      3.4717                 5.0762                 5.1206
 Frc consts  --      0.3968                 0.8881                 0.9540
 IR Inten    --      0.0108                 1.7163                 1.3876

                     10                     11                     12
                      A                      A                      A
 Frequencies --    565.9126               727.9703               747.8289
 Red. masses --      2.8350                 5.6228                 2.9265
 Frc consts  --      0.5349                 1.7556                 0.9643
 IR Inten    --      0.0000                 0.5629                 2.2957

                     13                     14                     15
                      A                      A                      A
 Frequencies --    782.3398               899.3465               918.1102
 Red. masses --      1.2589                 1.3103                 2.7093
 Frc consts  --      0.4540                 0.6244                 1.3455
 IR Inten    --     41.4513                 0.0000                 1.8049

                     16                     17                     18
                      A                      A                      A
 Frequencies --    988.2168              1003.8767              1018.3833
 Red. masses --      1.8851                 1.3205                 3.2916
 Frc consts  --      1.0847                 0.7841                 2.0113
 IR Inten    --      0.8523                 0.0274                 1.2696

                     19                     20                     21
                      A                      A                      A
 Frequencies --   1050.4939              1055.3291              1061.9661
 Red. masses --      1.7536                 1.6022                 1.6015
 Frc consts  --      1.1401                 1.0514                 1.0641
 IR Inten    --      0.0502                 8.6839                 0.0000

                     22                     23                     24
                      A                      A                      A
 Frequencies --   1117.5984              1179.7623              1249.3572
 Red. masses --      1.4875                 1.2500                 1.8435
 Frc consts  --      1.0947                 1.0251                 1.6954
 IR Inten    --      5.4953                 4.1500                13.6688

                     25                     26                     27
                      A                      A                      A
 Frequencies --   1285.9716              1287.2394              1408.8811
 Red. masses --      4.8399                 3.5611                 1.2455
 Frc consts  --      4.7158                 3.4765                 1.4567
 IR Inten    --      1.5161                 7.0103                 4.7272

                     28                     29                     30
                      A                      A                      A
 Frequencies --   1409.9507              1442.7906              1473.4451
 Red. masses --      1.3059                 2.5493                 1.5398
 Frc consts  --      1.5295                 3.1266                 1.9696
 IR Inten    --      9.4735                 2.1839                22.4837

                     31                     32                     33
                      A                      A                      A
 Frequencies --   1476.9231              1477.3192              1498.9752
 Red. masses --      1.0447                 1.0439                 1.2309
 Frc consts  --      1.3426                 1.3423                 1.6296
 IR Inten    --     15.3660                 0.0001                17.4382

                     34                     35                     36
                      A                      A                      A
 Frequencies --   1500.1106              1617.6266              1626.8437
 Red. masses --      1.4371                 6.7836                 5.0709
 Frc consts  --      1.9054                10.4584                 7.9073
 IR Inten    --     60.5139                74.6534                48.0191

                     37                     38                     39
                      A                      A                      A
 Frequencies --   3033.0868              3033.6585              3089.6061
 Red. masses --      1.0355                 1.0355                 1.1002
 Frc consts  --      5.6125                 5.6147                 6.1877
 IR Inten    --     30.2893                 7.8476                 0.0157

                     40                     41                     42
                      A                      A                      A
 Frequencies --   3089.7535              3110.3402              3110.7529
 Red. masses --      1.1002                 1.1026                 1.1026
 Frc consts  --      6.1885                 6.2850                 6.2861
 IR Inten    --     22.9480                19.9744                14.7261

                     43                     44                     45
                      A                      A                      A
 Frequencies --   3164.3313              3180.4955              3189.1443
 Red. masses --      1.0867                 1.0914                 1.0974
 Frc consts  --      6.4111                 6.5046                 6.5763
 IR Inten    --      3.6192                20.3924                12.8544

 - Thermochemistry -
 -------------------
 Temperature   298.150 Kelvin.  Pressure   1.00000 Atm.
 Atom     1 has atomic number  6 and mass  12.00000

 Molecular mass:   107.07350 amu.
 Principal axes and moments of inertia in atomic units:
                           1         2         3
     Eigenvalues --   514.35092 947.204541439.29779
           X            1.00000   0.00000   0.00000
           Y            0.00000   1.00000   0.00000
           Z            0.00000   0.00000   1.00000
 This molecule is an asymmetric top.
 Rotational symmetry number  1.
 Warning -- assumption of classical behavior for rotation
           may cause significant error
 Rotational temperatures (Kelvin)      0.16839     0.09144     0.06018
 Rotational constants (GHZ):           3.50877     1.90533     1.25390
 Zero-point vibrational energy     374623.3 (Joules/Mol)
                                   89.53712 (Kcal/Mol)
 Warning -- explicit consideration of  10 degrees of freedom as
           vibrations may cause significant error
 Vibrational temperatures:     70.23    82.59   281.59   296.45   405.52
          (Kelvin)            605.56   633.67   784.03   809.07   814.22
                             1047.39  1075.96  1125.61  1293.96  1320.95
                             1421.82  1444.35  1465.22  1511.42  1518.38
                             1527.93  1607.97  1697.41  1797.54  1850.22
                             1852.05  2027.06  2028.60  2075.85  2119.96
                             2124.96  2125.53  2156.69  2158.32  2327.40
                             2340.66  4363.93  4364.75  4445.25  4445.46
                             4475.08  4475.67  4552.76  4576.02  4588.46

 Zero-point correction=                           0.142686 (Hartree/Particle)
 Thermal correction to Energy=                    0.150569
 Thermal correction to Enthalpy=                  0.151513
 Thermal correction to Gibbs Free Energy=         0.109564
 Sum of electronic and zero-point Energies=           -326.870745
 Sum of electronic and thermal Energies=              -326.862863
 Sum of electronic and thermal Enthalpies=            -326.861918
 Sum of electronic and thermal Free Energies=         -326.903867

                     E (Thermal)             CV                S
                      KCal/Mol        Cal/Mol-Kelvin    Cal/Mol-Kelvin
 Total                   94.483             28.486             88.289
 Electronic               0.000              0.000              0.000
 Translational            0.889              2.981             39.922
 Rotational               0.889              2.981             28.041
 Vibrational             92.706             22.524             20.326
 Vibration     1          0.595              1.978              4.865
 Vibration     2          0.596              1.975              4.545
 Vibration     3          0.636              1.846              2.173
 Vibration     4          0.641              1.831              2.078
 Vibration     5          0.681              1.707              1.522
 Vibration     6          0.783              1.425              0.889
 Vibration     7          0.800              1.382              0.825
 Vibration     8          0.900              1.151              0.555
 Vibration     9          0.918              1.113              0.519
 Vibration    10          0.922              1.105              0.512

 Optimization completed.
    -- Stationary point found.
 Normal termination of Gaussian 09 at Thu Apr 20 16:00:21 2023.
