 Gaussian 09, Revision D.01,
 Gaussian 09:  ES64L-G09RevD.01 24-Apr-2013

 ----------------------------------------------------------------------
 # opt freq b3lyp/6-311+g(d,p) geom=connectivity pop=(hirshfeld,chelpg,
 mbs,npa)
 ----------------------------------------------------------------------

 -------------------
 Title Card Required
 -------------------
 Symbolic Z-matrix:
 Charge =  0 Multiplicity = 1

 SCF Done:  E(RB3LYP) =  -264.360479431     A.U. after   13 cycles
 SCF Done:  E(RB3LYP) =  -264.385459090     A.U. after   12 cycles
 SCF Done:  E(RB3LYP) =  -264.392632874     A.U. after   12 cycles
 SCF Done:  E(RB3LYP) =  -264.393596932     A.U. after   10 cycles
 SCF Done:  E(RB3LYP) =  -264.393891525     A.U. after   10 cycles
 SCF Done:  E(RB3LYP) =  -264.393902650     A.U. after    9 cycles
 SCF Done:  E(RB3LYP) =  -264.393903493     A.U. after    8 cycles
 Optimization completed.
    -- Stationary point found.
 Normal termination of Gaussian 09 at Mon Nov  1 16:51:19 2021.

 ----------------------------------------------------------------------
 #N Geom=AllCheck Guess=TCheck SCRF=Check GenChk RB3LYP/6-311+G(d,p) Fr
 eq
 ----------------------------------------------------------------------

 Structure from the checkpoint file:  "Chart2_1.chk"
 -------------------
 Title Card Required
 -------------------
 Charge =  0 Multiplicity = 1

                         Standard orientation:
 ---------------------------------------------------------------------
 Center     Atomic      Atomic             Coordinates (Angstroms)
 Number     Number       Type             X           Y           Z
 ---------------------------------------------------------------------
      1          6           0       -1.309854   -0.000225    0.000015
      2          6           0        0.622218   -1.183246    0.000002
      3          6           0        1.353493    0.000155    0.000001
      4          6           0        0.621911    1.183373   -0.000019
      5          1           0       -2.395796   -0.000407   -0.000034
      6          1           0        1.115939   -2.151074    0.000020
      7          1           0        2.436416    0.000532    0.000021
      8          1           0        1.115530    2.151271    0.000007
      9          7           0       -0.714396    1.194943    0.000010
     10          7           0       -0.713989   -1.195038   -0.000011
 ---------------------------------------------------------------------

 SCF Done:  E(RB3LYP) =  -264.393903493     A.U. after    1 cycles

 The electronic state is 1-A.
 Alpha  occ. eigenvalues --  -14.33145 -14.33143 -10.25030 -10.23788 -10.23788
 Alpha  occ. eigenvalues --  -10.20517  -1.00281  -0.90552  -0.80922  -0.67251
 Alpha  occ. eigenvalues --   -0.67146  -0.55214  -0.53011  -0.48351  -0.44070
 Alpha  occ. eigenvalues --   -0.43427  -0.42544  -0.33242  -0.31593  -0.30257
 Alpha  occ. eigenvalues --   -0.26760
 Alpha virt. eigenvalues --   -0.06002  -0.04741  -0.00189   0.02358   0.02688
 Alpha virt. eigenvalues --    0.04532   0.04762   0.05756   0.06154   0.07852
 Alpha virt. eigenvalues --    0.08866   0.09862   0.10341   0.11385   0.13071

 Mulliken charges:
               1
     1  C   -0.057029
     2  C   -0.140141
     3  C    0.002637
     4  C   -0.140153
     5  H    0.151411
     6  H    0.145436
     7  H    0.139535
     8  H    0.145436
     9  N   -0.123584
    10  N   -0.123548
 Sum of Mulliken charges =   0.00000

 Dipole moment (field-independent basis, Debye):
    X=              2.4659    Y=              0.0000    Z=              0.0000  Tot=              2.4659
 Quadrupole moment (field-independent basis, Debye-Ang):
   XX=            -31.0904   YY=            -37.8519   ZZ=            -36.2503
   XY=              0.0021   XZ=              0.0001   YZ=             -0.0001

  Exact polarizability:  67.925   0.000  65.229   0.000   0.000  33.928
 Approx polarizability: 109.700  -0.002 108.736   0.000   0.000  49.508

 ESP charges:
               1
     1  C    0.854536
     2  C    0.619669
     3  C   -0.583686
     4  C    0.619626
     5  H   -0.054331
     6  H   -0.008157
     7  H    0.159737
     8  H   -0.008143
     9  N   -0.799613
    10  N   -0.799638
 Sum of ESP charges =   0.00000

 Summary of Natural Population Analysis:

                                       Natural Population
                Natural  -----------------------------------------------
    Atom  No    Charge         Core      Valence    Rydberg      Total
 -----------------------------------------------------------------------
      C    1    0.27820      1.99936     3.68388    0.03856     5.72180
      C    2    0.08261      1.99923     3.88912    0.02903     5.91739
      C    3   -0.28503      1.99914     4.27057    0.01533     6.28503
      C    4    0.08259      1.99923     3.88915    0.02903     5.91741
      H    5    0.18074      0.00000     0.81801    0.00125     0.81926
      H    6    0.19368      0.00000     0.80493    0.00140     0.80632
      H    7    0.22061      0.00000     0.77777    0.00162     0.77939
      H    8    0.19367      0.00000     0.80493    0.00140     0.80633
      N    9   -0.47353      1.99944     5.45225    0.02184     7.47353
      N   10   -0.47355      1.99944     5.45226    0.02185     7.47355
 =======================================================================
   * Total *    0.00000     11.99583    29.84286    0.16131    42.00000

                      1                      2                      3
                      A                      A                      A
 Frequencies --    348.9474               406.9798               636.2618
 Red. masses --      2.6364                 4.1339                 7.9788
 Frc consts  --      0.1891                 0.4034                 1.9031
 IR Inten    --      3.5551                 0.0000                 9.9410

                      4                      5                      6
                      A                      A                      A
 Frequencies --    696.1003               735.6040               821.8771
 Red. masses --      7.3302                 1.7395                 1.7243
 Frc consts  --      2.0927                 0.5546                 0.6862
 IR Inten    --      3.0955                43.9206                 7.0740

                      7                      8                      9
                      A                      A                      A
 Frequencies --    981.2913               999.3161              1011.2620
 Red. masses --      1.3754                 1.3788                 9.8175
 Frc consts  --      0.7803                 0.8113                 5.9153
 IR Inten    --      0.0262                 0.0000                 3.4982

                     10                     11                     12
                      A                      A                      A
 Frequencies --   1023.3963              1079.5115              1093.7874
 Red. masses --      1.4978                 3.5423                 1.5209
 Frc consts  --      0.9243                 2.4322                 1.0721
 IR Inten    --      0.0011                 1.0120                 3.7865

                     13                     14                     15
                      A                      A                      A
 Frequencies --   1160.5541              1214.5865              1252.9585
 Red. masses --      2.5421                 3.9090                 1.7441
 Frc consts  --      2.0173                 3.3976                 1.6132
 IR Inten    --      0.8982                 4.6515                 9.7707

                     16                     17                     18
                      A                      A                      A
 Frequencies --   1392.9739              1435.4192              1491.7281
 Red. masses --      1.1537                 2.1602                 1.8779
 Frc consts  --      1.3190                 2.6224                 2.4621
 IR Inten    --      0.2635                59.2891                 6.4057

                     19                     20                     21
                      A                      A                      A
 Frequencies --   1607.5331              1607.7764              3151.7137
 Red. masses --      5.4963                 5.0975                 1.0887
 Frc consts  --      8.3684                 7.7636                 6.3718
 IR Inten    --     83.7385                47.4313                14.0853

                     22                     23                     24
                      A                      A                      A
 Frequencies --   3154.9259              3167.8036              3197.7832
 Red. masses --      1.0918                 1.0918                 1.0964
 Frc consts  --      6.4030                 6.4549                 6.6055
 IR Inten    --     18.2046                13.8751                 9.1210

 - Thermochemistry -
 -------------------
 Temperature   298.150 Kelvin.  Pressure   1.00000 Atm.
 Atom     1 has atomic number  6 and mass  12.00000

 Molecular mass:    80.03745 amu.
 Principal axes and moments of inertia in atomic units:
                           1         2         3
     Eigenvalues --   286.96000 296.13290 583.09290
           X           -0.00063   1.00000   0.00000
           Y            1.00000   0.00063   0.00000
           Z            0.00000   0.00000   1.00000
 This molecule is an asymmetric top.
 Rotational symmetry number  1.
 Rotational temperatures (Kelvin)      0.30183     0.29248     0.14854
 Rotational constants (GHZ):           6.28917     6.09436     3.09512
 Zero-point vibrational energy     201391.9 (Joules/Mol)
                                   48.13381 (Kcal/Mol)
 Warning -- explicit consideration of   2 degrees of freedom as
           vibrations may cause significant error
 Vibrational temperatures:    502.06   585.55   915.44  1001.53  1058.37
          (Kelvin)           1182.50  1411.86  1437.79  1454.98  1472.44
                             1553.17  1573.71  1669.78  1747.52  1802.73
                             2004.18  2065.25  2146.26  2312.88  2313.23
                             4534.61  4539.23  4557.76  4600.89

 Zero-point correction=                           0.076706 (Hartree/Particle)
 Thermal correction to Energy=                    0.080903
 Thermal correction to Enthalpy=                  0.081847
 Thermal correction to Gibbs Free Energy=         0.049342
 Sum of electronic and zero-point Energies=           -264.317197
 Sum of electronic and thermal Energies=              -264.313001
 Sum of electronic and thermal Enthalpies=            -264.312056
 Sum of electronic and thermal Free Energies=         -264.344561

                     E (Thermal)             CV                S
                      KCal/Mol        Cal/Mol-Kelvin    Cal/Mol-Kelvin
 Total                   50.767             15.224             68.412
 Electronic               0.000              0.000              0.000
 Translational            0.889              2.981             39.054
 Rotational               0.889              2.981             25.408
 Vibrational             48.990              9.262              3.950
 Vibration     1          0.726              1.577              1.171
 Vibration     2          0.772              1.455              0.937

 Optimization completed.
    -- Stationary point found.
 Normal termination of Gaussian 09 at Mon Nov  1 16:51:41 2021.
