 Gaussian 09, Revision D.01,
 Gaussian 09:  ES64L-G09RevD.01 24-Apr-2013

 ----------------------------------------------------------------------
 # opt freq b3lyp/6-311+g(d,p) geom=connectivity pop=(hirshfeld,chelpg,
 mbs,npa)
 ----------------------------------------------------------------------

 -------------------
 Title Card Required
 -------------------
 Symbolic Z-matrix:
 Charge =  0 Multiplicity = 1

 SCF Done:  E(RB3LYP) =  -303.694238865     A.U. after   13 cycles
 SCF Done:  E(RB3LYP) =  -303.719090098     A.U. after   12 cycles
 SCF Done:  E(RB3LYP) =  -303.725964711     A.U. after   12 cycles
 SCF Done:  E(RB3LYP) =  -303.726942802     A.U. after   11 cycles
 SCF Done:  E(RB3LYP) =  -303.727199116     A.U. after   11 cycles
 SCF Done:  E(RB3LYP) =  -303.727073291     A.U. after   11 cycles
 SCF Done:  E(RB3LYP) =  -303.727266184     A.U. after   11 cycles
 SCF Done:  E(RB3LYP) =  -303.727269462     A.U. after    9 cycles
 Optimization completed.
    -- Stationary point found.
 Normal termination of Gaussian 09 at Mon Nov  1 16:52:17 2021.

 ----------------------------------------------------------------------
 #N Geom=AllCheck Guess=TCheck SCRF=Check GenChk RB3LYP/6-311+G(d,p) Fr
 eq
 ----------------------------------------------------------------------

 Structure from the checkpoint file:  "Chart2_2.chk"
 -------------------
 Title Card Required
 -------------------
 Charge =  0 Multiplicity = 1

                         Standard orientation:
 ---------------------------------------------------------------------
 Center     Atomic      Atomic             Coordinates (Angstroms)
 Number     Number       Type             X           Y           Z
 ---------------------------------------------------------------------
      1          6           0        0.843744   -0.002257   -0.011634
      2          6           0       -1.109727   -1.178702    0.001688
      3          6           0       -1.843340    0.001888    0.007143
      4          6           0       -1.105516    1.180786    0.001821
      5          1           0       -1.601949   -2.147700    0.003540
      6          1           0       -2.925861    0.003929    0.012593
      7          1           0       -1.595035    2.151223    0.003343
      8          7           0        0.228297    1.190442   -0.008200
      9          7           0        0.224745   -1.192466   -0.008131
     10          6           0        2.345598   -0.001637    0.004147
     11          1           0        2.732672    0.849298   -0.557002
     12          1           0        2.702652    0.092701    1.035452
     13          1           0        2.731677   -0.935750   -0.402596
 ---------------------------------------------------------------------

 SCF Done:  E(RB3LYP) =  -303.727269462     A.U. after    1 cycles

 The electronic state is 1-A.
 Alpha  occ. eigenvalues --  -14.32285 -14.32283 -10.25399 -10.23203 -10.23187
 Alpha  occ. eigenvalues --  -10.19702 -10.16799  -0.99761  -0.89800  -0.81442
 Alpha  occ. eigenvalues --   -0.72927  -0.66841  -0.63341  -0.53010  -0.52971
 Alpha  occ. eigenvalues --   -0.46667  -0.45365  -0.43336  -0.40528  -0.39762
 Alpha  occ. eigenvalues --   -0.39373  -0.32670  -0.31209  -0.28712  -0.25873
 Alpha virt. eigenvalues --   -0.05452  -0.03882  -0.00031   0.01928   0.02452
 Alpha virt. eigenvalues --    0.04366   0.04410   0.05578   0.05789   0.07250
 Alpha virt. eigenvalues --    0.08447   0.08679   0.08899   0.09443   0.10730

 Mulliken charges:
               1
     1  C    0.017660
     2  C   -0.012414
     3  C   -0.081863
     4  C   -0.015625
     5  H    0.138705
     6  H    0.135241
     7  H    0.138754
     8  N   -0.084900
     9  N   -0.083217
    10  C   -0.635266
    11  H    0.159994
    12  H    0.161939
    13  H    0.160993
 Sum of Mulliken charges =   0.00000

 Dipole moment (field-independent basis, Debye):
    X=             -1.7525    Y=              0.0156    Z=              0.0609  Tot=              1.7536
 Quadrupole moment (field-independent basis, Debye-Ang):
   XX=            -34.4915   YY=            -44.5212   ZZ=            -42.5850
   XY=              0.0100   XZ=              0.0816   YZ=             -0.0014

  Exact polarizability:  89.622   0.196  74.178   0.490   0.006  44.086
 Approx polarizability: 131.134   0.383 123.784   0.657   0.012  65.425

 ESP charges:
               1
     1  C    1.020813
     2  C    0.572209
     3  C   -0.578390
     4  C    0.571062
     5  H    0.004223
     6  H    0.163525
     7  H    0.005112
     8  N   -0.815969
     9  N   -0.815764
    10  C   -0.479414
    11  H    0.116393
    12  H    0.120799
    13  H    0.115400
 Sum of ESP charges =   0.00000

 Summary of Natural Population Analysis:

                                       Natural Population
                Natural  -----------------------------------------------
    Atom  No    Charge         Core      Valence    Rydberg      Total
 -----------------------------------------------------------------------
      C    1    0.44236      1.99928     3.52286    0.03550     5.55764
      C    2    0.09122      1.99922     3.88106    0.02850     5.90878
      C    3   -0.29632      1.99914     4.28179    0.01539     6.29632
      C    4    0.09164      1.99922     3.88063    0.02851     5.90836
      H    5    0.19151      0.00000     0.80700    0.00149     0.80849
      H    6    0.21968      0.00000     0.77873    0.00159     0.78032
      H    7    0.19139      0.00000     0.80711    0.00149     0.80861
      N    8   -0.49117      1.99936     5.47051    0.02130     7.49117
      N    9   -0.49143      1.99937     5.47096    0.02110     7.49143
      C   10   -0.61361      1.99929     4.60301    0.01132     6.61361
      H   11    0.22128      0.00000     0.77717    0.00155     0.77872
      H   12    0.22282      0.00000     0.77564    0.00154     0.77718
      H   13    0.22064      0.00000     0.77780    0.00156     0.77936
 =======================================================================
   * Total *    0.00000     13.99487    35.83429    0.17084    50.00000

                      1                      2                      3
                      A                      A                      A
 Frequencies --     23.7956               178.8688               369.9808
 Red. masses --      1.0429                 3.6135                 2.6226
 Frc consts  --      0.0003                 0.0681                 0.2115
 IR Inten    --      0.3653                 7.7966                 7.4450

                      4                      5                      6
                      A                      A                      A
 Frequencies --    407.9610               471.7326               584.4246
 Red. masses --      4.1228                 2.4367                 5.2640
 Frc consts  --      0.4043                 0.3195                 1.0593
 IR Inten    --      0.0819                 1.9180                 2.6926

                      7                      8                      9
                      A                      A                      A
 Frequencies --    649.6292               767.4057               817.8411
 Red. masses --      7.7533                 2.5033                 1.4078
 Frc consts  --      1.9278                 0.8686                 0.5548
 IR Inten    --      6.5209                20.8924                13.7756

                     10                     11                     12
                      A                      A                      A
 Frequencies --    836.6551               997.5002               997.8870
 Red. masses --      5.1138                 1.4485                 1.4512
 Frc consts  --      2.1091                 0.8492                 0.8514
 IR Inten    --      1.3567                 0.9071                 0.6530

                     13                     14                     15
                      A                      A                      A
 Frequencies --   1002.2321              1011.9837              1070.1505
 Red. masses --      1.4640                 8.5323                 1.6826
 Frc consts  --      0.8664                 5.1483                 1.1353
 IR Inten    --      0.7141                 1.1716                 9.8444

                     16                     17                     18
                      A                      A                      A
 Frequencies --   1094.1198              1126.6498              1225.1546
 Red. masses --      2.4791                 1.3213                 8.6967
 Frc consts  --      1.7485                 0.9882                 7.6911
 IR Inten    --      0.0977                 0.0279                 1.1625

                     19                     20                     21
                      A                      A                      A
 Frequencies --   1298.3146              1303.8916              1408.0842
 Red. masses --      1.5505                 2.4209                 1.3226
 Frc consts  --      1.5399                 2.4250                 1.5450
 IR Inten    --      8.2072                 2.8842                 0.5162

                     22                     23                     24
                      A                      A                      A
 Frequencies --   1454.8283              1458.0361              1481.8599
 Red. masses --      1.6387                 2.0590                 1.2069
 Frc consts  --      2.0435                 2.5789                 1.5614
 IR Inten    --     21.0952               107.0011                27.4122

                     25                     26                     27
                      A                      A                      A
 Frequencies --   1486.6548              1599.0908              1615.7806
 Red. masses --      1.2077                 5.5956                 5.4101
 Frc consts  --      1.5726                 8.4303                 8.3218
 IR Inten    --     18.9419                78.9630               110.0799

                     28                     29                     30
                      A                      A                      A
 Frequencies --   3034.4400              3100.4996              3142.7824
 Red. masses --      1.0446                 1.0886                 1.1044
 Frc consts  --      5.6673                 6.1659                 6.4272
 IR Inten    --      7.6334                11.0474                 8.2368

                     31                     32                     33
                      A                      A                      A
 Frequencies --   3147.0280              3149.5592              3200.6760
 Red. masses --      1.0896                 1.0917                 1.0960
 Frc consts  --      6.3577                 6.3806                 6.6153
 IR Inten    --     15.1115                20.2312                10.2580

 - Thermochemistry -
 -------------------
 Temperature   298.150 Kelvin.  Pressure   1.00000 Atm.
 Atom     1 has atomic number  6 and mass  12.00000

 Molecular mass:    94.05310 amu.
 Principal axes and moments of inertia in atomic units:
                           1         2         3
     Eigenvalues --   305.86703 656.80438 951.52282
           X            1.00000   0.00013   0.00072
           Y           -0.00013   1.00000  -0.00001
           Z           -0.00072   0.00001   1.00000
 This molecule is an asymmetric top.
 Rotational symmetry number  1.
 Rotational temperatures (Kelvin)      0.28317     0.13187     0.09103
 Rotational constants (GHZ):           5.90041     2.74776     1.89669
 Zero-point vibrational energy     272243.1 (Joules/Mol)
                                   65.06767 (Kcal/Mol)
 Warning -- explicit consideration of   6 degrees of freedom as
           vibrations may cause significant error
 Vibrational temperatures:     34.24   257.35   532.32   586.96   678.72
          (Kelvin)            840.86   934.67  1104.12  1176.69  1203.76
                             1435.18  1435.74  1441.99  1456.02  1539.71
                             1574.19  1621.00  1762.72  1867.98  1876.01
                             2025.92  2093.17  2097.79  2132.06  2138.96
                             2300.73  2324.75  4365.88  4460.92  4521.76
                             4527.87  4531.51  4605.05

 Zero-point correction=                           0.103692 (Hartree/Particle)
 Thermal correction to Energy=                    0.109726
 Thermal correction to Enthalpy=                  0.110670
 Thermal correction to Gibbs Free Energy=         0.072728
 Sum of electronic and zero-point Energies=           -303.623578
 Sum of electronic and thermal Energies=              -303.617543
 Sum of electronic and thermal Enthalpies=            -303.616599
 Sum of electronic and thermal Free Energies=         -303.654541

                     E (Thermal)             CV                S
                      KCal/Mol        Cal/Mol-Kelvin    Cal/Mol-Kelvin
 Total                   68.854             21.399             79.856
 Electronic               0.000              0.000              0.000
 Translational            0.889              2.981             39.535
 Rotational               0.889              2.981             26.750
 Vibrational             67.077             15.437             13.571
 Vibration     1          0.593              1.985              6.289
 Vibration     2          0.629              1.868              2.340
 Vibration     3          0.742              1.534              1.080
 Vibration     4          0.773              1.453              0.934
 Vibration     5          0.829              1.313              0.733
 Vibration     6          0.941              1.065              0.477

 Normal termination of Gaussian 09 at Mon Nov  1 16:53:03 2021.
