 Gaussian 09, Revision D.01,
 Gaussian 09:  ES64L-G09RevD.01 24-Apr-2013

 ----------------------------------------------------------------------
 # opt freq=noraman b3lyp/6-311+g(d,p) pop=(npa,hirshfeld,chelpg,mbs) g
 eom=connectivity
 ----------------------------------------------------------------------

 -------------------
 Title Card Required
 -------------------
 Symbolic Z-matrix:
 Charge =  0 Multiplicity = 1

 SCF Done:  E(RB3LYP) =  -670.489798075     A.U. after   15 cycles
 SCF Done:  E(RB3LYP) =  -670.508540224     A.U. after   13 cycles
 SCF Done:  E(RB3LYP) =  -670.510602100     A.U. after   13 cycles
 SCF Done:  E(RB3LYP) =  -670.510928307     A.U. after   12 cycles
 SCF Done:  E(RB3LYP) =  -670.510955329     A.U. after   10 cycles
 SCF Done:  E(RB3LYP) =  -670.510944139     A.U. after   10 cycles
 SCF Done:  E(RB3LYP) =  -670.510956633     A.U. after   10 cycles
 Optimization completed.
    -- Stationary point found.
 Normal termination of Gaussian 09 at Tue Apr 23 12:06:54 2024.

 ----------------------------------------------------------------------
 #N Geom=AllCheck Guess=TCheck SCRF=Check GenChk RB3LYP/6-311+G(d,p) Fr
 eq
 ----------------------------------------------------------------------

 Structure from the checkpoint file:  "38.chk"
 -------------------
 Title Card Required
 -------------------
 Charge =  0 Multiplicity = 1

                         Standard orientation:
 ---------------------------------------------------------------------
 Center     Atomic      Atomic             Coordinates (Angstroms)
 Number     Number       Type             X           Y           Z
 ---------------------------------------------------------------------
      1          6           0        2.129984   -0.253642    0.000009
      2          6           0        1.287762    0.894131   -0.000030
      3          6           0       -0.099895    0.720270    0.000014
      4          6           0       -0.622025   -0.572529    0.000096
      5          6           0        0.235695   -1.697563    0.000133
      6          6           0        1.611542   -1.554711    0.000091
      7          6           0        3.435358    1.568545   -0.000193
      8          6           0        2.152190    2.040766   -0.000082
      9          1           0       -0.767117    1.572329   -0.000003
     10          1           0       -0.215313   -2.681657    0.000196
     11          1           0        2.257960   -2.424657    0.000121
     12          1           0        4.371188    2.106219   -0.000289
     13          1           0        1.859214    3.078780   -0.000101
     14          7           0        3.435344    0.181753   -0.000058
     15          6           0        4.609149   -0.670507   -0.000007
     16          1           0        4.630578   -1.306444    0.889628
     17          1           0        4.630411   -1.306753   -0.889423
     18          1           0        5.501210   -0.045099   -0.000202
     19          6           0       -2.085561   -0.829797    0.000151
     20          8           0       -2.591796   -1.931589    0.000152
     21          8           0       -2.818005    0.309570    0.000006
     22          6           0       -4.254718    0.147216   -0.000053
     23          1           0       -4.542436   -0.430149   -0.881893
     24          1           0       -4.542521   -0.430043    0.881827
     25          6           0       -4.873072    1.530497   -0.000160
     26          1           0       -5.963224    1.446215   -0.000220
     27          1           0       -4.573761    2.094572    0.886265
     28          1           0       -4.573655    2.094516   -0.886583
 ---------------------------------------------------------------------

 SCF Done:  E(RB3LYP) =  -670.510956633     A.U. after    1 cycles

 The electronic state is 1-A.
 Alpha  occ. eigenvalues --  -19.15853 -19.09968 -14.37345 -10.29321 -10.22769
 Alpha  occ. eigenvalues --  -10.22523 -10.21345 -10.21250 -10.18210 -10.18152
 Alpha  occ. eigenvalues --  -10.18146 -10.17965 -10.17611 -10.16943 -10.16776
 Alpha  occ. eigenvalues --   -1.09903  -1.01116  -1.00177  -0.85957  -0.81304
 Alpha  occ. eigenvalues --   -0.78368  -0.75868  -0.73532  -0.70759  -0.65899
 Alpha  occ. eigenvalues --   -0.63264  -0.60045  -0.58294  -0.56366  -0.53250
 Alpha  occ. eigenvalues --   -0.51975  -0.49404  -0.49128  -0.48142  -0.46698
 Alpha  occ. eigenvalues --   -0.45333  -0.44083  -0.43144  -0.42564  -0.42377
 Alpha  occ. eigenvalues --   -0.40974  -0.40328  -0.40135  -0.39542  -0.37974
 Alpha  occ. eigenvalues --   -0.36628  -0.35415  -0.34373  -0.33472  -0.30152
 Alpha  occ. eigenvalues --   -0.28829  -0.27398  -0.23617  -0.21800
 Alpha virt. eigenvalues --   -0.04096  -0.02392  -0.00682   0.00830   0.01247
 Alpha virt. eigenvalues --    0.02336   0.03011   0.03179   0.03836   0.03861
 Alpha virt. eigenvalues --    0.04103   0.04356   0.04790   0.06069   0.06345

 Mulliken charges:
               1
     1  C   -0.739841
     2  C    0.743786
     3  C   -0.291880
     4  C    1.016015
     5  C   -1.012750
     6  C   -0.060183
     7  C    0.077336
     8  C   -0.477712
     9  H    0.134329
    10  H    0.145883
    11  H    0.111481
    12  H    0.121259
    13  H    0.118491
    14  N    0.087165
    15  C   -0.243145
    16  H    0.161852
    17  H    0.161842
    18  H    0.143772
    19  C   -0.087814
    20  O   -0.279539
    21  O   -0.114976
    22  C    0.084985
    23  H    0.157187
    24  H    0.157183
    25  C   -0.551651
    26  H    0.146256
    27  H    0.145334
    28  H    0.145336
 Sum of Mulliken charges =   0.00000

 Dipole moment (field-independent basis, Debye):
    X=              3.4800    Y=              1.7060    Z=             -0.0002  Tot=              3.8757
 Quadrupole moment (field-independent basis, Debye-Ang):
   XX=            -62.6052   YY=            -89.6465   ZZ=            -92.1169
   XY=             -9.5224   XZ=              0.0001   YZ=             -0.0001

  Exact polarizability: 231.230  11.212 162.637  -0.002  -0.005  92.060
 Approx polarizability: 317.723  27.221 273.240  -0.006  -0.008 142.155

 ESP charges:
               1
     1  C    0.092364
     2  C    0.263947
     3  C   -0.272321
     4  C   -0.063113
     5  C   -0.121807
     6  C   -0.182403
     7  C   -0.107666
     8  C   -0.382806
     9  H    0.140045
    10  H    0.106352
    11  H    0.123908
    12  H    0.151797
    13  H    0.172581
    14  N   -0.066585
    15  C    0.034431
    16  H    0.033332
    17  H    0.033247
    18  H    0.051234
    19  C    0.728515
    20  O   -0.573945
    21  O   -0.477643
    22  C    0.400708
    23  H   -0.014436
    24  H   -0.014497
    25  C   -0.221527
    26  H    0.036666
    27  H    0.064858
    28  H    0.064767
 Sum of ESP charges =   0.00000

 Summary of Natural Population Analysis:

                                       Natural Population
                Natural  -----------------------------------------------
    Atom  No    Charge         Core      Valence    Rydberg      Total
 -----------------------------------------------------------------------
      C    1    0.18353      1.99898     3.79850    0.01900     5.81647
      C    2   -0.09731      1.99901     4.08168    0.01662     6.09731
      C    3   -0.13635      1.99901     4.12174    0.01560     6.13635
      C    4   -0.18128      1.99893     4.16413    0.01822     6.18128
      C    5   -0.16351      1.99913     4.14652    0.01785     6.16351
      C    6   -0.24274      1.99908     4.22812    0.01554     6.24274
      C    7    0.00900      1.99917     3.97128    0.02055     5.99100
      C    8   -0.27800      1.99909     4.26185    0.01706     6.27800
      H    9    0.22617      0.00000     0.77201    0.00182     0.77383
      H   10    0.22979      0.00000     0.76850    0.00171     0.77021
      H   11    0.21136      0.00000     0.78695    0.00170     0.78864
      H   12    0.20512      0.00000     0.79337    0.00151     0.79488
      H   13    0.22162      0.00000     0.77675    0.00163     0.77838
      N   14   -0.41255      1.99922     5.39934    0.01399     7.41255
      C   15   -0.35043      1.99935     4.33876    0.01232     6.35043
      H   16    0.19941      0.00000     0.79868    0.00190     0.80059
      H   17    0.19941      0.00000     0.79868    0.00190     0.80059
      H   18    0.20598      0.00000     0.79288    0.00114     0.79402
      C   19    0.80055      1.99927     3.15278    0.04740     5.19945
      O   20   -0.61322      1.99975     6.60206    0.01141     8.61322
      O   21   -0.57332      1.99972     6.55588    0.01772     8.57332
      C   22   -0.03596      1.99922     4.01713    0.01961     6.03596
      H   23    0.18483      0.00000     0.81296    0.00220     0.81517
      H   24    0.18483      0.00000     0.81296    0.00220     0.81517
      C   25   -0.59183      1.99936     4.58394    0.00852     6.59183
      H   26    0.20622      0.00000     0.79257    0.00120     0.79378
      H   27    0.20433      0.00000     0.79402    0.00165     0.79567
      H   28    0.20433      0.00000     0.79402    0.00165     0.79567
 =======================================================================
   * Total *    0.00000     29.98828    77.71808    0.29364   108.00000

                      1                      2                      3
                      A                      A                      A
 Frequencies --     30.2844                38.3042                65.6468
 Red. masses --      2.0959                 1.3564                 2.4914
 Frc consts  --      0.0011                 0.0012                 0.0063
 IR Inten    --      1.4095                 0.1508                 2.2249

                      4                      5                      6
                      A                      A                      A
 Frequencies --     75.7259                88.5648               120.7921
 Red. masses --      6.2331                 3.9016                 2.5034
 Frc consts  --      0.0211                 0.0180                 0.0215
 IR Inten    --      0.4626                 1.8304                 0.0417

                      7                      8                      9
                      A                      A                      A
 Frequencies --    175.0913               202.1417               229.8184
 Red. masses --      3.0165                 3.7588                 3.9618
 Frc consts  --      0.0545                 0.0905                 0.1233
 IR Inten    --      2.1026                 1.0213                 4.1141

                     10                     11                     12
                      A                      A                      A
 Frequencies --    255.5750               262.7396               317.4108
 Red. masses --      1.2923                 4.4224                 5.2913
 Frc consts  --      0.0497                 0.1799                 0.3141
 IR Inten    --      0.7016                 4.3450                 1.3638

                     13                     14                     15
                      A                      A                      A
 Frequencies --    332.5559               374.2404               432.1769
 Red. masses --      4.0965                 5.7058                 2.9011
 Frc consts  --      0.2669                 0.4708                 0.3193
 IR Inten    --      0.4460                13.7271                 5.1885

                     16                     17                     18
                      A                      A                      A
 Frequencies --    446.1748               517.0859               578.5266
 Red. masses --      3.9497                 4.1630                 3.8388
 Frc consts  --      0.4633                 0.6558                 0.7570
 IR Inten    --      0.8328                 2.4050                 0.1307

                     19                     20                     21
                      A                      A                      A
 Frequencies --    597.3503               607.4467               621.1812
 Red. masses --      5.9980                 3.9772                 5.0821
 Frc consts  --      1.2610                 0.8647                 1.1554
 IR Inten    --      9.1346                 0.0034                 4.5797

                     22                     23                     24
                      A                      A                      A
 Frequencies --    717.6647               747.5942               762.6151
 Red. masses --      1.4050                 6.3439                 2.4890
 Frc consts  --      0.4264                 2.0890                 0.8529
 IR Inten    --     32.2982                15.3421                62.2370

                     25                     26                     27
                      A                      A                      A
 Frequencies --    785.7995               788.2595               813.1889
 Red. masses --      3.8456                 5.3621                 1.1158
 Frc consts  --      1.3991                 1.9630                 0.4347
 IR Inten    --     12.5240                 7.4641                 0.6924

                     28                     29                     30
                      A                      A                      A
 Frequencies --    836.2707               848.8824               863.5957
 Red. masses --      1.8964                 6.8324                 1.3281
 Frc consts  --      0.7814                 2.9008                 0.5836
 IR Inten    --      6.0800                 1.8567                 0.0784

                     31                     32                     33
                      A                      A                      A
 Frequencies --    887.3509               931.0339               952.6953
 Red. masses --      2.5310                 1.5247                 3.5225
 Frc consts  --      1.1742                 0.7787                 1.8837
 IR Inten    --      5.0876                 9.9508                 4.4819

                     34                     35                     36
                      A                      A                      A
 Frequencies --    974.7533              1021.6276              1037.0657
 Red. masses --      1.3103                 2.0670                 2.9414
 Frc consts  --      0.7335                 1.2711                 1.8639
 IR Inten    --      0.1261                 7.2072                33.9553

                     37                     38                     39
                      A                      A                      A
 Frequencies --   1100.2537              1105.1004              1121.5793
 Red. masses --      1.2651                 2.6802                 2.5118
 Frc consts  --      0.9023                 1.9285                 1.8617
 IR Inten    --     58.9515                82.3802                90.3045

                     40                     41                     42
                      A                      A                      A
 Frequencies --   1134.5317              1142.6660              1168.1766
 Red. masses --      2.2100                 1.2969                 1.4779
 Frc consts  --      1.6760                 0.9977                 1.1883
 IR Inten    --      6.9197                 0.2005                79.3174

                     43                     44                     45
                      A                      A                      A
 Frequencies --   1175.9271              1200.1699              1266.9323
 Red. masses --      1.5560                 2.3101                 1.6471
 Frc consts  --      1.2677                 1.9605                 1.5577
 IR Inten    --      3.4787               236.2472                48.8887

                     46                     47                     48
                      A                      A                      A
 Frequencies --   1275.9297              1296.0786              1326.3122
 Red. masses --      2.4432                 1.0953                 2.2933
 Frc consts  --      2.3435                 1.0840                 2.3769
 IR Inten    --    291.5536                 0.9194               241.0490

                     49                     50                     51
                      A                      A                      A
 Frequencies --   1361.6063              1387.8484              1398.0859
 Red. masses --      6.3934                 2.8408                 1.3897
 Frc consts  --      6.9837                 3.2239                 1.6004
 IR Inten    --     70.1149                19.3296                29.0376

                     52                     53                     54
                      A                      A                      A
 Frequencies --   1409.1229              1425.6545              1456.9856
 Red. masses --      5.1027                 1.4095                 1.3046
 Frc consts  --      5.9697                 1.6879                 1.6317
 IR Inten    --      3.5971                10.6218                 4.5724

                     55                     56                     57
                      A                      A                      A
 Frequencies --   1476.1025              1484.0125              1485.7081
 Red. masses --      3.9436                 1.0390                 1.0389
 Frc consts  --      5.0627                 1.3481                 1.3511
 IR Inten    --      9.7513                 9.9713                 7.6790

                     58                     59                     60
                      A                      A                      A
 Frequencies --   1499.3898              1514.7152              1518.8701
 Red. masses --      1.0471                 2.5608                 1.1152
 Frc consts  --      1.3870                 3.4617                 1.5158
 IR Inten    --      3.9543                35.2294                 9.7724

                     61                     62                     63
                      A                      A                      A
 Frequencies --   1520.2876              1549.0111              1605.5213
 Red. masses --      1.1599                 4.3547                 6.3132
 Frc consts  --      1.5795                 6.1563                 9.5881
 IR Inten    --      8.1518                24.9913                 8.7762

                     64                     65                     66
                      A                      A                      A
 Frequencies --   1646.9774              1752.0716              3024.9365
 Red. masses --      6.5781                12.3963                 1.0356
 Frc consts  --     10.5130                22.4205                 5.5829
 IR Inten    --     49.6090               369.4197                66.3969

                     67                     68                     69
                      A                      A                      A
 Frequencies --   3034.7709              3049.3827              3077.0574
 Red. masses --      1.0349                 1.0579                 1.1052
 Frc consts  --      5.6159                 5.7959                 6.1655
 IR Inten    --     19.5661                20.4966                21.3676

                     70                     71                     72
                      A                      A                      A
 Frequencies --   3082.9957              3100.8664              3111.7867
 Red. masses --      1.1070                 1.1005                 1.1053
 Frc consts  --      6.1993                 6.2346                 6.3058
 IR Inten    --      2.8599                31.0076                40.8863

                     73                     74                     75
                      A                      A                      A
 Frequencies --   3129.7950              3178.1074              3204.3983
 Red. masses --      1.0999                 1.0891                 1.0915
 Frc consts  --      6.3480                 6.4811                 6.6034
 IR Inten    --      8.4829                 7.2617                 4.1287

                     76                     77                     78
                      A                      A                      A
 Frequencies --   3205.2508              3233.8140              3252.4484
 Red. masses --      1.0923                 1.0896                 1.1042
 Frc consts  --      6.6117                 6.7134                 6.8818
 IR Inten    --      0.8790                 0.2915                 2.6369

 - Thermochemistry -
 -------------------
 Temperature   298.150 Kelvin.  Pressure   1.00000 Atm.
 Atom     1 has atomic number  6 and mass  12.00000

 Molecular mass:   203.09463 amu.
 Principal axes and moments of inertia in atomic units:
                           1         2         3
     Eigenvalues --  1128.191326228.854677323.14792
           X            0.99982  -0.01905   0.00000
           Y            0.01905   0.99982   0.00007
           Z           -0.00001  -0.00007   1.00000
 This molecule is an asymmetric top.
 Rotational symmetry number  1.
 Warning -- assumption of classical behavior for rotation
           may cause significant error
 Rotational temperatures (Kelvin)      0.07677     0.01391     0.01183
 Rotational constants (GHZ):           1.59968     0.28974     0.24644
 Zero-point vibrational energy     597106.8 (Joules/Mol)
                                  142.71196 (Kcal/Mol)
 Warning -- explicit consideration of  20 degrees of freedom as
           vibrations may cause significant error
 Vibrational temperatures:     43.57    55.11    94.45   108.95   127.42
          (Kelvin)            173.79   251.92   290.84   330.66   367.71
                              378.02   456.68   478.47   538.45   621.81
                              641.95   743.97   832.37   859.45   873.98
                              893.74  1032.56  1075.62  1097.23  1130.59
                             1134.13  1170.00  1203.21  1221.35  1242.52
                             1276.70  1339.55  1370.71  1402.45  1469.89
                             1492.10  1583.02  1589.99  1613.70  1632.34
                             1644.04  1680.74  1691.89  1726.77  1822.83
                             1835.78  1864.77  1908.27  1959.05  1996.80
                             2011.53  2027.41  2051.20  2096.27  2123.78
                             2135.16  2137.60  2157.28  2179.33  2185.31
                             2187.35  2228.68  2309.98  2369.63  2520.84
                             4352.20  4366.35  4387.38  4427.19  4435.74
                             4461.45  4477.16  4503.07  4572.58  4610.41
                             4611.64  4652.73  4679.54

 Zero-point correction=                           0.227426 (Hartree/Particle)
 Thermal correction to Energy=                    0.241451
 Thermal correction to Enthalpy=                  0.242395
 Thermal correction to Gibbs Free Energy=         0.184860
 Sum of electronic and zero-point Energies=           -670.283531
 Sum of electronic and thermal Energies=              -670.269505
 Sum of electronic and thermal Enthalpies=            -670.268561
 Sum of electronic and thermal Free Energies=         -670.326097

                     E (Thermal)             CV                S
                      KCal/Mol        Cal/Mol-Kelvin    Cal/Mol-Kelvin
 Total                  151.513             51.995            121.094
 Electronic               0.000              0.000              0.000
 Translational            0.889              2.981             41.830
 Rotational               0.889              2.981             32.309
 Vibrational            149.735             46.034             46.955
 Vibration     1          0.594              1.984              5.811
 Vibration     2          0.594              1.982              5.345
 Vibration     3          0.597              1.971              4.280
 Vibration     4          0.599              1.965              3.999
 Vibration     5          0.601              1.957              3.692
 Vibration     6          0.609              1.932              3.088
 Vibration     7          0.627              1.873              2.380
 Vibration     8          0.639              1.837              2.114
 Vibration     9          0.652              1.795              1.880
 Vibration    10          0.666              1.753              1.692
 Vibration    11          0.670              1.741              1.644
 Vibration    12          0.704              1.640              1.323
 Vibration    13          0.714              1.610              1.248
 Vibration    14          0.745              1.525              1.062
 Vibration    15          0.793              1.400              0.852
 Vibration    16          0.805              1.369              0.807
 Vibration    17          0.872              1.212              0.617
 Vibration    18          0.935              1.078              0.488
 Vibration    19          0.955              1.037              0.454
 Vibration    20          0.966              1.016              0.437

 Optimization completed.
    -- Stationary point found.
 Normal termination of Gaussian 09 at Tue Apr 23 12:15:20 2024.
