 Gaussian 09, Revision D.01,
 Gaussian 09:  ES64L-G09RevD.01 24-Apr-2013

 ---------------------------------------------------------------------
 # b3lyp/6-311+g(d,p) geom=connectivity pop=(hirshfeld,chelpg,mbs,npa)
 ---------------------------------------------------------------------

 --------
 Table9_8
 --------
 Symbolic Z-matrix:
 Charge =  0 Multiplicity = 1

                         Standard orientation:
 ---------------------------------------------------------------------
 Center     Atomic      Atomic             Coordinates (Angstroms)
 Number     Number       Type             X           Y           Z
 ---------------------------------------------------------------------
      1          6           0        2.098557    0.818794    0.000004
      2          6           0        1.294191   -0.343752   -0.000014
      3          6           0        1.918472   -1.599980   -0.000024
      4          6           0        3.306414   -1.653162   -0.000006
      5          6           0        4.086489   -0.482577    0.000027
      6          6           0        3.492075    0.773409    0.000018
      7          6           0       -0.070068    1.491142    0.000002
      8          6           0       -0.083422    0.101789    0.000007
      9          1           0        1.317668   -2.499445   -0.000035
     10          1           0        3.802327   -2.617264   -0.000002
     11          1           0        5.167663   -0.560453    0.000044
     12          1           0        4.089908    1.678295    0.000022
     13          1           0        1.522339    2.872925    0.000015
     14          7           0        1.237534    1.906639   -0.000007
     15          6           0       -1.174188    2.498307   -0.000014
     16          1           0       -1.813535    2.378427    0.876669
     17          1           0       -0.771236    3.514259   -0.000252
     18          1           0       -1.813794    2.378129   -0.876472
     19          6           0       -1.237265   -0.790484   -0.000027
     20          8           0       -1.174546   -2.003372   -0.000010
     21          8           0       -2.425753   -0.123167   -0.000017
     22          6           0       -3.614692   -0.946027    0.000040
     23          6           0       -4.815289   -0.020851    0.000005
     24          1           0       -3.596883   -1.591045    0.881670
     25          1           0       -3.596901   -1.591147   -0.881512
     26          1           0       -5.735313   -0.611694    0.000053
     27          1           0       -4.820105    0.617650    0.886656
     28          1           0       -4.820132    0.617558   -0.886710
 ---------------------------------------------------------------------

 SCF Done:  E(RB3LYP) =  -670.524375440     A.U. after   15 cycles

 The electronic state is 1-A.
 Alpha  occ. eigenvalues --  -19.15810 -19.09727 -14.37373 -10.29385 -10.23558
 Alpha  occ. eigenvalues --  -10.22638 -10.21216 -10.18870 -10.17908 -10.17755
 Alpha  occ. eigenvalues --  -10.17667 -10.17209 -10.17094 -10.16710 -10.16603
 Alpha  occ. eigenvalues --   -1.09661  -1.00923  -0.99993  -0.84945  -0.81040
 Alpha  occ. eigenvalues --   -0.77372  -0.77120  -0.73864  -0.70425  -0.66843
 Alpha  occ. eigenvalues --   -0.62536  -0.60763  -0.59324  -0.56233  -0.53844
 Alpha  occ. eigenvalues --   -0.50116  -0.49445  -0.49272  -0.46655  -0.45831
 Alpha  occ. eigenvalues --   -0.45787  -0.43796  -0.43284  -0.42083  -0.41765
 Alpha  occ. eigenvalues --   -0.41044  -0.40560  -0.40117  -0.39112  -0.36544
 Alpha  occ. eigenvalues --   -0.36062  -0.35137  -0.34456  -0.34081  -0.30124
 Alpha  occ. eigenvalues --   -0.28426  -0.27340  -0.23388  -0.21799
 Alpha virt. eigenvalues --   -0.03518  -0.01261  -0.00755   0.00412   0.01011
 Alpha virt. eigenvalues --    0.01270   0.02455   0.02795   0.03427   0.03787
 Alpha virt. eigenvalues --    0.04341   0.05182   0.05371   0.06144   0.06647

 Mulliken charges:
               1
     1  C   -0.492606
     2  C    2.126912
     3  C   -1.171806
     4  C   -0.249216
     5  C   -0.259562
     6  C   -0.344337
     7  C   -0.189360
     8  C    0.613905
     9  H    0.152415
    10  H    0.122848
    11  H    0.121787
    12  H    0.105364
    13  H    0.285658
    14  N   -0.067378
    15  C   -0.521798
    16  H    0.182676
    17  H    0.129728
    18  H    0.182680
    19  C   -0.557023
    20  O   -0.280718
    21  O   -0.160010
    22  C    0.100965
    23  C   -0.584968
    24  H    0.159726
    25  H    0.159726
    26  H    0.148354
    27  H    0.143019
    28  H    0.143019
 Sum of Mulliken charges =   0.00000

 Dipole moment (field-independent basis, Debye):
    X=             -0.8255    Y=              4.5208    Z=              0.0001  Tot=              4.5955
 Quadrupole moment (field-independent basis, Debye-Ang):
   XX=            -76.1801   YY=            -81.9252   ZZ=            -92.1479
   XY=              2.5361   XZ=              0.0000   YZ=              0.0001

 ESP charges:
               1
     1  C    0.245598
     2  C    0.219565
     3  C   -0.234276
     4  C   -0.068020
     5  C   -0.127227
     6  C   -0.247560
     7  C    0.354745
     8  C   -0.473486
     9  H    0.148896
    10  H    0.078808
    11  H    0.102390
    12  H    0.132611
    13  H    0.386031
    14  N   -0.587411
    15  C   -0.174948
    16  H    0.066332
    17  H    0.051413
    18  H    0.066348
    19  C    0.813577
    20  O   -0.587755
    21  O   -0.467059
    22  C    0.407823
    23  C   -0.248488
    24  H   -0.022957
    25  H   -0.022970
    26  H    0.044517
    27  H    0.071752
    28  H    0.071752
 Sum of ESP charges =   0.00000

 Summary of Natural Population Analysis:

                                       Natural Population
                Natural  -----------------------------------------------
    Atom  No    Charge         Core      Valence    Rydberg      Total
 -----------------------------------------------------------------------
      C    1    0.14540      1.99897     3.83510    0.02054     5.85460
      C    2   -0.04368      1.99876     4.02857    0.01634     6.04368
      C    3   -0.18715      1.99911     4.17002    0.01802     6.18715
      C    4   -0.21779      1.99918     4.20102    0.01760     6.21779
      C    5   -0.20779      1.99919     4.18986    0.01875     6.20779
      C    6   -0.23703      1.99906     4.22172    0.01625     6.23703
      C    7    0.25703      1.99908     3.72377    0.02012     5.74297
      C    8   -0.24577      1.99878     4.22610    0.02088     6.24577
      H    9    0.23391      0.00000     0.76422    0.00187     0.76609
      H   10    0.20535      0.00000     0.79325    0.00140     0.79465
      H   11    0.20460      0.00000     0.79392    0.00147     0.79540
      H   12    0.20691      0.00000     0.79140    0.00169     0.79309
      H   13    0.40221      0.00000     0.59441    0.00337     0.59779
      N   14   -0.53255      1.99925     5.51943    0.01388     7.53255
      C   15   -0.60665      1.99928     4.59769    0.00968     6.60665
      H   16    0.23336      0.00000     0.76486    0.00178     0.76664
      H   17    0.19910      0.00000     0.79943    0.00147     0.80090
      H   18    0.23337      0.00000     0.76485    0.00178     0.76663
      C   19    0.80415      1.99909     3.15006    0.04670     5.19585
      O   20   -0.61620      1.99975     6.60556    0.01089     8.61620
      O   21   -0.58211      1.99972     6.56265    0.01974     8.58211
      C   22   -0.03784      1.99922     4.01791    0.02071     6.03784
      C   23   -0.59111      1.99936     4.58316    0.00859     6.59111
      H   24    0.18474      0.00000     0.81299    0.00227     0.81526
      H   25    0.18474      0.00000     0.81299    0.00227     0.81526
      H   26    0.20701      0.00000     0.79177    0.00123     0.79299
      H   27    0.20210      0.00000     0.79616    0.00174     0.79790
      H   28    0.20210      0.00000     0.79616    0.00174     0.79790
 =======================================================================
   * Total *    0.00040     29.98780    77.70903    0.30278   107.99960

 Normal termination of Gaussian 09 at Fri Jul 23 17:41:12 2021.
