 Gaussian 09, Revision D.01,
 Gaussian 09:  ES64L-G09RevD.01 24-Apr-2013

 ----------------------------------------------------------------------
 # opt freq=noraman b3lyp/6-311+g(d,p) pop=(npa,hirshfeld,chelpg,mbs) g
 eom=connectivity
 ----------------------------------------------------------------------

 ---
 tit
 ---
 Symbolic Z-matrix:
 Charge =  0 Multiplicity = 1

 SCF Done:  E(RB3LYP) =  -1468.89259044     A.U. after   16 cycles
 SCF Done:  E(RB3LYP) =  -1468.89570920     A.U. after   15 cycles
 SCF Done:  E(RB3LYP) =  -1468.89576578     A.U. after   13 cycles
 SCF Done:  E(RB3LYP) =  -1468.89578730     A.U. after   13 cycles
 SCF Done:  E(RB3LYP) =  -1468.89579204     A.U. after   12 cycles
 SCF Done:  E(RB3LYP) =  -1468.89579327     A.U. after   12 cycles
 SCF Done:  E(RB3LYP) =  -1468.89579340     A.U. after   10 cycles
 Optimization completed.
    -- Stationary point found.
 Normal termination of Gaussian 09 at Fri Jan 19 14:44:34 2024.

 ----------------------------------------------------------------------
 #N Geom=AllCheck Guess=TCheck SCRF=Check GenChk RB3LYP/6-311+G(d,p) Fr
 eq
 ----------------------------------------------------------------------

 Structure from the checkpoint file:  "compound1.chk"
 ---
 tit
 ---
 Charge =  0 Multiplicity = 1

                         Standard orientation:
 ---------------------------------------------------------------------
 Center     Atomic      Atomic             Coordinates (Angstroms)
 Number     Number       Type             X           Y           Z
 ---------------------------------------------------------------------
      1          6           0       -0.798459   -1.988513   -0.138629
      2          6           0       -2.176343   -2.140929   -0.147516
      3          6           0       -3.000367   -1.017196   -0.063552
      4          6           0       -2.372196    0.253511    0.016985
      5          6           0       -0.260580   -0.698494   -0.037838
      6          1           0       -0.158531   -2.854624   -0.232481
      7          1           0       -2.624504   -3.124061   -0.226897
      8          7           0       -1.053260    0.387491    0.027030
      9         16           0       -3.394048    1.698372    0.115346
     10          6           0       -2.144134    3.020127    0.207931
     11          1           0       -1.558342    3.064176   -0.708332
     12          1           0       -2.714772    3.941585    0.327701
     13          1           0       -1.489493    2.871166    1.064220
     14          6           0       -4.418220   -1.158666   -0.067448
     15          7           0       -5.566953   -1.290291   -0.071862
     16          6           0        1.202274   -0.454871   -0.016933
     17          6           0        1.710489    0.798578   -0.387265
     18          6           0        2.110092   -1.451239    0.369446
     19          6           0        3.077214    1.048066   -0.390323
     20          1           0        1.018615    1.577176   -0.679292
     21          6           0        3.480082   -1.213063    0.378367
     22          1           0        1.754105   -2.421213    0.694269
     23          6           0        3.954275    0.036993   -0.007183
     24          1           0        3.461257    2.015517   -0.687595
     25          1           0        4.172185   -1.985352    0.688148
     26         17           0        5.682410    0.344439   -0.003983
 ---------------------------------------------------------------------

 SCF Done:  E(RB3LYP) =  -1468.89579340     A.U. after    1 cycles

 The electronic state is 1-A.
 Alpha  occ. eigenvalues -- -101.56797 -88.87477 -14.33982 -14.32560 -10.27627
 Alpha  occ. eigenvalues --  -10.25851 -10.25580 -10.24075 -10.22917 -10.22201
 Alpha  occ. eigenvalues --  -10.21402 -10.21165 -10.20958 -10.20937 -10.20733
 Alpha  occ. eigenvalues --  -10.20604 -10.20401  -9.48253  -7.96101  -7.24711
 Alpha  occ. eigenvalues --   -7.23742  -7.23698  -5.92499  -5.92060  -5.91520
 Alpha  occ. eigenvalues --   -0.98958  -0.92429  -0.91365  -0.86824  -0.84951
 Alpha  occ. eigenvalues --   -0.83693  -0.79022  -0.78239  -0.75953  -0.69856
 Alpha  occ. eigenvalues --   -0.68659  -0.64958  -0.62643  -0.61581  -0.58412
 Alpha  occ. eigenvalues --   -0.55274  -0.53733  -0.50052  -0.49099  -0.47739
 Alpha  occ. eigenvalues --   -0.47085  -0.46099  -0.45416  -0.44948  -0.43984
 Alpha  occ. eigenvalues --   -0.43398  -0.41858  -0.40585  -0.39304  -0.38646
 Alpha  occ. eigenvalues --   -0.38223  -0.37754  -0.36235  -0.35564  -0.34524
 Alpha  occ. eigenvalues --   -0.33094  -0.33043  -0.30935  -0.29404  -0.28741
 Alpha  occ. eigenvalues --   -0.26423  -0.24181
 Alpha virt. eigenvalues --   -0.09323  -0.05847  -0.04025  -0.02781  -0.01797
 Alpha virt. eigenvalues --   -0.01123   0.00098   0.00564   0.00865   0.01678
 Alpha virt. eigenvalues --    0.01923   0.02785   0.02836   0.03691   0.03779

 Mulliken charges:
               1
     1  C   -0.053259
     2  C   -1.300836
     3  C    2.657181
     4  C   -0.728633
     5  C    0.282842
     6  H    0.136540
     7  H    0.148723
     8  N    0.304959
     9  S   -0.370888
    10  C   -0.494325
    11  H    0.183530
    12  H    0.177815
    13  H    0.193617
    14  C   -1.323905
    15  N   -0.147124
    16  C    0.502462
    17  C   -0.069760
    18  C   -0.387422
    19  C   -0.710781
    20  H    0.150044
    21  C   -0.768151
    22  H    0.128542
    23  C    0.780049
    24  H    0.150151
    25  H    0.151366
    26  Cl   0.407266
 Sum of Mulliken charges =   0.00000

 Dipole moment (field-independent basis, Debye):
    X=              3.7979    Y=             -0.0306    Z=             -0.0061  Tot=              3.7980
 Quadrupole moment (field-independent basis, Debye-Ang):
   XX=           -154.6320   YY=            -95.7094   ZZ=           -115.7639
   XY=             -8.0083   XZ=              0.1840   YZ=             -1.6380

  Exact polarizability: 344.587   9.090 201.958   1.868  -4.711 105.470
 Approx polarizability: 494.345  13.431 337.917   4.166 -12.971 170.422

 ESP charges:
               1
     1  C   -0.273694
     2  C    0.060579
     3  C   -0.200044
     4  C    0.376802
     5  C    0.313187
     6  H    0.123544
     7  H    0.097848
     8  N   -0.394887
     9  S   -0.192614
    10  C   -0.067301
    11  H    0.052794
    12  H    0.121048
    13  H    0.033693
    14  C    0.425582
    15  N   -0.480445
    16  C    0.026108
    17  C   -0.119685
    18  C   -0.156481
    19  C   -0.054730
    20  H    0.102555
    21  C   -0.047792
    22  H    0.113099
    23  C    0.091880
    24  H    0.095991
    25  H    0.094284
    26  Cl  -0.141321
 Sum of ESP charges =   0.00000

 Summary of Natural Population Analysis:

                                       Natural Population
                Natural  -----------------------------------------------
    Atom  No    Charge         Core      Valence    Rydberg      Total
 -----------------------------------------------------------------------
      C    1   -0.24790      1.99905     4.23390    0.01494     6.24790
      C    2   -0.09775      1.99910     4.08332    0.01533     6.09775
      C    3   -0.24029      1.99874     4.21945    0.02210     6.24029
      C    4    0.12437      1.99895     3.84730    0.02938     5.87563
      C    5    0.23315      1.99902     3.74195    0.02588     5.76685
      H    6    0.21998      0.00000     0.77827    0.00174     0.78002
      H    7    0.22592      0.00000     0.77272    0.00136     0.77408
      N    8   -0.51202      1.99924     5.48755    0.02524     7.51202
      S    9    0.30283      9.99909     5.65910    0.03898    15.69717
      C   10   -0.69803      1.99926     4.68779    0.01098     6.69803
      H   11    0.21786      0.00000     0.78022    0.00192     0.78214
      H   12    0.22232      0.00000     0.77637    0.00132     0.77768
      H   13    0.22545      0.00000     0.77262    0.00193     0.77455
      C   14    0.27721      1.99925     3.68918    0.03435     5.72279
      N   15   -0.29453      1.99958     5.27445    0.02049     7.29453
      C   16   -0.07651      1.99876     4.05794    0.01981     6.07651
      C   17   -0.16265      1.99914     4.14528    0.01823     6.16265
      C   18   -0.15946      1.99895     4.14543    0.01508     6.15946
      C   19   -0.20646      1.99877     4.18884    0.01885     6.20646
      H   20    0.22918      0.00000     0.76904    0.00178     0.77082
      C   21   -0.21085      1.99877     4.19270    0.01939     6.21085
      H   22    0.20888      0.00000     0.78882    0.00230     0.79112
      C   23   -0.04053      1.99865     4.01652    0.02536     6.04053
      H   24    0.22444      0.00000     0.77360    0.00196     0.77556
      H   25    0.22450      0.00000     0.77331    0.00219     0.77550
     Cl   26    0.01103      9.99961     6.96902    0.02034    16.98897
 =======================================================================
   * Total *    0.00012     49.98394    83.62469    0.39124   133.99988

                      1                      2                      3
                      A                      A                      A
 Frequencies --     34.4694                39.3260                66.1251
 Red. masses --      4.5810                 7.2362                 7.8898
 Frc consts  --      0.0032                 0.0066                 0.0203
 IR Inten    --      0.9981                 1.5095                 1.6848

                      4                      5                      6
                      A                      A                      A
 Frequencies --     71.7669               102.6599               122.1900
 Red. masses --      4.0809                 6.6550                 9.2765
 Frc consts  --      0.0124                 0.0413                 0.0816
 IR Inten    --      1.7460                 2.2094                 3.6704

                      7                      8                      9
                      A                      A                      A
 Frequencies --    145.4399               168.6364               189.3572
 Red. masses --      1.3707                 3.1402                 4.0044
 Frc consts  --      0.0171                 0.0526                 0.0846
 IR Inten    --      0.7290                 2.1674                 1.7962

                     10                     11                     12
                      A                      A                      A
 Frequencies --    215.0626               233.7711               278.9687
 Red. masses --      6.6217                10.7888                 6.3823
 Frc consts  --      0.1804                 0.3474                 0.2926
 IR Inten    --      2.8714                 0.6272                 2.5337

                     13                     14                     15
                      A                      A                      A
 Frequencies --    318.4836               345.8735               378.3576
 Red. masses --      6.8678                 6.0100                 9.1475
 Frc consts  --      0.4104                 0.4236                 0.7715
 IR Inten    --      1.3581                 3.4254                 3.5665

                     16                     17                     18
                      A                      A                      A
 Frequencies --    416.8757               428.6325               445.8775
 Red. masses --      2.9566                 4.4482                 6.7977
 Frc consts  --      0.3027                 0.4815                 0.7962
 IR Inten    --      0.8952                 1.9994                12.3198

                     19                     20                     21
                      A                      A                      A
 Frequencies --    473.5409               509.1433               545.2825
 Red. masses --      6.1061                 3.9362                 6.7823
 Frc consts  --      0.8067                 0.6012                 1.1881
 IR Inten    --      7.2015                 8.3443                 7.7560

                     22                     23                     24
                      A                      A                      A
 Frequencies --    603.6651               609.2741               643.8677
 Red. masses --      8.0226                 6.9491                 6.2139
 Frc consts  --      1.7225                 1.5199                 1.5178
 IR Inten    --      1.7936                 9.1167                 0.0924

                     25                     26                     27
                      A                      A                      A
 Frequencies --    653.2747               696.9085               714.9849
 Red. masses --      4.6251                 7.3211                 7.0299
 Frc consts  --      1.1629                 2.0950                 2.1174
 IR Inten    --      1.4075                 5.5600                 4.5955

                     28                     29                     30
                      A                      A                      A
 Frequencies --    728.6823               747.3971               770.4500
 Red. masses --      4.1847                 7.2842                 4.6798
 Frc consts  --      1.3091                 2.3974                 1.6367
 IR Inten    --      1.3384                 6.9031                 8.1147

                     31                     32                     33
                      A                      A                      A
 Frequencies --    834.0754               836.8113               858.1227
 Red. masses --      1.3293                 1.3285                 4.5064
 Frc consts  --      0.5449                 0.5481                 1.9551
 IR Inten    --     35.9983                35.8571                34.2930

                     34                     35                     36
                      A                      A                      A
 Frequencies --    866.5328               968.9839               981.1017
 Red. masses --      2.0801                 1.3435                 1.1844
 Frc consts  --      0.9203                 0.7432                 0.6717
 IR Inten    --      4.3334                 0.1430                 3.0058

                     37                     38                     39
                      A                      A                      A
 Frequencies --    985.7284               989.4525               991.0616
 Red. masses --      1.3413                 1.3549                 1.3120
 Frc consts  --      0.7679                 0.7815                 0.7593
 IR Inten    --      0.9080                 1.5209                 3.3867

                     40                     41                     42
                      A                      A                      A
 Frequencies --   1027.5414              1073.1554              1095.2018
 Red. masses --      3.7707                 4.8663                 3.8514
 Frc consts  --      2.3457                 3.3020                 2.7218
 IR Inten    --     41.0387                 5.0129                59.5518

                     43                     44                     45
                      A                      A                      A
 Frequencies --   1105.2604              1133.5874              1172.2811
 Red. masses --      2.8140                 1.3811                 1.4195
 Frc consts  --      2.0253                 1.0457                 1.1494
 IR Inten    --     73.4654                 9.0223                14.2269

                     46                     47                     48
                      A                      A                      A
 Frequencies --   1203.4172              1240.2937              1277.1635
 Red. masses --      1.1835                 3.4702                 4.8590
 Frc consts  --      1.0098                 3.1452                 4.6697
 IR Inten    --      5.6934                22.4779                10.0294

                     49                     50                     51
                      A                      A                      A
 Frequencies --   1303.2079              1321.4549              1325.3078
 Red. masses --      5.0656                 3.7900                 1.4417
 Frc consts  --      5.0688                 3.8994                 1.4920
 IR Inten    --     24.3470                16.2519                 9.5720

                     52                     53                     54
                      A                      A                      A
 Frequencies --   1356.9116              1385.6757              1424.2632
 Red. masses --      1.3082                 2.9161                 3.2085
 Frc consts  --      1.4192                 3.2989                 3.8347
 IR Inten    --     27.0933                96.6737                64.5382

                     55                     56                     57
                      A                      A                      A
 Frequencies --   1454.6102              1456.6301              1477.1433
 Red. masses --      2.1435                 1.2422                 1.0984
 Frc consts  --      2.6722                 1.5529                 1.4121
 IR Inten    --     96.8795                33.7969                14.3925

                     58                     59                     60
                      A                      A                      A
 Frequencies --   1520.0634              1573.8876              1602.5751
 Red. masses --      2.4812                 4.6658                 6.8608
 Frc consts  --      3.3778                 6.8097                10.3815
 IR Inten    --     50.2625                57.1176               229.5365

                     61                     62                     63
                      A                      A                      A
 Frequencies --   1611.3286              1632.9651              2324.6004
 Red. masses --      6.5754                 5.8386                12.6769
 Frc consts  --     10.0587                 9.1730                40.3609
 IR Inten    --    137.6458                15.4124                64.0351

                     64                     65                     66
                      A                      A                      A
 Frequencies --   3057.5279              3145.0481              3154.4942
 Red. masses --      1.0285                 1.1050                 1.1077
 Frc consts  --      5.6651                 6.4400                 6.4944
 IR Inten    --     14.6677                 5.6692                 3.6242

                     67                     68                     69
                      A                      A                      A
 Frequencies --   3183.9743              3191.3841              3196.7262
 Red. masses --      1.0885                 1.0907                 1.0894
 Frc consts  --      6.5013                 6.5449                 6.5592
 IR Inten    --      5.5901                 1.3294                 0.9208

                     70                     71                     72
                      A                      A                      A
 Frequencies --   3204.9275              3213.8368              3216.3241
 Red. masses --      1.0944                 1.0935                 1.0934
 Frc consts  --      6.6234                 6.6546                 6.6642
 IR Inten    --      1.8013                 1.8477                 2.6142

 - Thermochemistry -
 -------------------
 Temperature   298.150 Kelvin.  Pressure   1.00000 Atm.
 Atom     1 has atomic number  6 and mass  12.00000

 Molecular mass:   260.01750 amu.
 Principal axes and moments of inertia in atomic units:
                           1         2         3
     Eigenvalues --  1840.25469********************
           X            0.99998  -0.00661   0.00011
           Y            0.00661   0.99997  -0.00394
           Z           -0.00009   0.00394   0.99999
 This molecule is an asymmetric top.
 Rotational symmetry number  1.
 Warning -- assumption of classical behavior for rotation
           may cause significant error
 Rotational temperatures (Kelvin)      0.04707     0.00784     0.00676
 Rotational constants (GHZ):           0.98070     0.16329     0.14095
 Zero-point vibrational energy     488512.9 (Joules/Mol)
                                  116.75739 (Kcal/Mol)
 Warning -- explicit consideration of  23 degrees of freedom as
           vibrations may cause significant error
 Vibrational temperatures:     49.59    56.58    95.14   103.26   147.70
          (Kelvin)            175.80   209.26   242.63   272.44   309.43
                              336.34   401.37   458.23   497.63   544.37
                              599.79   616.71   641.52   681.32   732.54
                              784.54   868.54   876.61   926.38   939.92
                             1002.69  1028.70  1048.41  1075.34  1108.50
                             1200.05  1203.98  1234.65  1246.75  1394.15
                             1411.58  1418.24  1423.60  1425.91  1478.40
                             1544.03  1575.75  1590.22  1630.98  1686.65
                             1731.45  1784.50  1837.55  1875.02  1901.28
                             1906.82  1952.29  1993.68  2049.19  2092.86
                             2095.76  2125.28  2187.03  2264.47  2305.75
                             2318.34  2349.47  3344.58  4399.10  4525.02
                             4538.61  4581.02  4591.68  4599.37  4611.17
                             4623.99  4627.57

 Zero-point correction=                           0.186065 (Hartree/Particle)
 Thermal correction to Energy=                    0.201394
 Thermal correction to Enthalpy=                  0.202338
 Thermal correction to Gibbs Free Energy=         0.141574
 Sum of electronic and zero-point Energies=          -1468.709729
 Sum of electronic and thermal Energies=             -1468.694399
 Sum of electronic and thermal Enthalpies=           -1468.693455
 Sum of electronic and thermal Free Energies=        -1468.754219

                     E (Thermal)             CV                S
                      KCal/Mol        Cal/Mol-Kelvin    Cal/Mol-Kelvin
 Total                  126.377             56.887            127.888
 Electronic               0.000              0.000              0.000
 Translational            0.889              2.981             42.566
 Rotational               0.889              2.981             33.920
 Vibrational            124.599             50.925             51.401
 Vibration     1          0.594              1.983              5.554
 Vibration     2          0.594              1.981              5.293
 Vibration     3          0.598              1.970              4.266
 Vibration     4          0.598              1.967              4.104
 Vibration     5          0.605              1.947              3.403
 Vibration     6          0.610              1.931              3.065
 Vibration     7          0.617              1.908              2.731
 Vibration     8          0.625              1.881              2.451
 Vibration     9          0.633              1.855              2.234
 Vibration    10          0.645              1.818              2.000
 Vibration    11          0.654              1.789              1.850
 Vibration    12          0.679              1.712              1.540
 Vibration    13          0.705              1.638              1.318
 Vibration    14          0.724              1.584              1.185
 Vibration    15          0.749              1.516              1.046
 Vibration    16          0.780              1.434              0.903
 Vibration    17          0.790              1.408              0.863
 Vibration    18          0.805              1.370              0.808
 Vibration    19          0.830              1.309              0.728
 Vibration    20          0.864              1.230              0.636
 Vibration    21          0.900              1.150              0.554
 Vibration    22          0.962              1.024              0.443
 Vibration    23          0.968              1.012              0.434

 Optimization completed.
    -- Stationary point found.
 Normal termination of Gaussian 09 at Fri Jan 19 14:59:25 2024.
