 Gaussian 09, Revision D.01,
 Gaussian 09:  ES64L-G09RevD.01 24-Apr-2013

 ----------------------------------------------------------------------
 # opt freq=noraman b3lyp/6-311+g(d,p) pop=(npa,hirshfeld,chelpg,mbs) g
 eom=connectivity
 ----------------------------------------------------------------------

 -------------------
 Title Card Required
 -------------------
 Symbolic Z-matrix:
 Charge =  0 Multiplicity = 1

 SCF Done:  E(RB3LYP) =  -1167.59320301     A.U. after   15 cycles
 Optimization completed.
    -- Stationary point found.
 Normal termination of Gaussian 09 at Fri Apr 26 11:29:00 2024.

 ----------------------------------------------------------------------
 #N Geom=AllCheck Guess=TCheck SCRF=Check GenChk RB3LYP/6-311+G(d,p) Fr
 eq
 ----------------------------------------------------------------------

 Structure from the checkpoint file:  "comp94.chk"
 -------------------
 Title Card Required
 -------------------
 Charge =  0 Multiplicity = 1

                         Standard orientation:
 ---------------------------------------------------------------------
 Center     Atomic      Atomic             Coordinates (Angstroms)
 Number     Number       Type             X           Y           Z
 ---------------------------------------------------------------------
      1          6           0        0.000000    0.700909    0.000000
      2          6           0       -0.009512   -0.702864    0.000000
      3          6           0        1.214209   -1.362661    0.000000
      4          6           0        2.387275   -0.614479    0.000000
      5          1           0        3.167447    1.401661    0.000000
      6          1           0        1.236724   -2.445191    0.000000
      7          1           0        3.355617   -1.099088    0.000000
      8          7           0        1.110085    1.409181    0.000000
      9         17           0       -1.501437    1.601193    0.000000
     10         17           0       -1.486074   -1.629235    0.000000
     11          6           0        2.284247    0.771607    0.000000
 ---------------------------------------------------------------------

 SCF Done:  E(RB3LYP) =  -1167.59320301     A.U. after    1 cycles

 The electronic state is 1-A'.
 Alpha  occ. eigenvalues -- -101.57543-101.56342 -14.34453 -10.29261 -10.27086
 Alpha  occ. eigenvalues --  -10.23799 -10.22594 -10.21284  -9.48992  -9.47819
 Alpha  occ. eigenvalues --   -7.25480  -7.24472  -7.24414  -7.24290  -7.23322
 Alpha  occ. eigenvalues --   -7.23227  -0.99620  -0.90324  -0.87139  -0.82094
 Alpha  occ. eigenvalues --   -0.76491  -0.66427  -0.65092  -0.54796  -0.53538
 Alpha  occ. eigenvalues --   -0.49149  -0.46250  -0.45670  -0.44259  -0.41369
 Alpha  occ. eigenvalues --   -0.37594  -0.35818  -0.34754  -0.32303  -0.30722
 Alpha  occ. eigenvalues --   -0.29423  -0.27225
 Alpha virt. eigenvalues --   -0.06384  -0.05008  -0.01707  -0.00198   0.01790
 Alpha virt. eigenvalues --    0.02241   0.02467   0.04297   0.04735   0.05742
 Alpha virt. eigenvalues --    0.05894   0.07758   0.08117   0.08554   0.08997

 Mulliken charges:
               1
     1  C   -0.953827
     2  C    0.625363
     3  C   -0.877264
     4  C   -0.104403
     5  H    0.146604
     6  H    0.165166
     7  H    0.143519
     8  N    0.123134
     9  Cl   0.380127
    10  Cl   0.465929
    11  C   -0.114349
 Sum of Mulliken charges =   0.00000

 Dipole moment (field-independent basis, Debye):
    X=              2.6443    Y=             -2.2229    Z=              0.0000  Tot=              3.4546
 Quadrupole moment (field-independent basis, Debye-Ang):
   XX=            -52.5592   YY=            -61.1746   ZZ=            -61.4359
   XY=             -2.3739   XZ=              0.0000   YZ=              0.0000

  Exact polarizability: 117.444  -0.109  95.725   0.000   0.000  48.827
 Approx polarizability: 186.218   1.679 154.161   0.000   0.000  72.818

 ESP charges:
               1
     1  C    0.542227
     2  C   -0.175006
     3  C    0.210949
     4  C   -0.401667
     5  H    0.024152
     6  H    0.062862
     7  H    0.154030
     8  N   -0.601020
     9  Cl  -0.147866
    10  Cl  -0.084639
    11  C    0.415979
 Sum of ESP charges =   0.00000

 Summary of Natural Population Analysis:

                                       Natural Population
                Natural  -----------------------------------------------
    Atom  No    Charge         Core      Valence    Rydberg      Total
 -----------------------------------------------------------------------
      C    1    0.17159      1.99852     3.79395    0.03595     5.82841
      C    2   -0.10447      1.99838     4.08129    0.02480     6.10447
      C    3   -0.17532      1.99899     4.15659    0.01974     6.17532
      C    4   -0.23455      1.99915     4.21892    0.01649     6.23455
      H    5    0.19840      0.00000     0.80016    0.00144     0.80160
      H    6    0.23009      0.00000     0.76816    0.00175     0.76991
      H    7    0.22169      0.00000     0.77671    0.00160     0.77831
      N    8   -0.44614      1.99926     5.42275    0.02413     7.44614
     Cl    9    0.03431      9.99962     6.94617    0.01990    16.96569
     Cl   10    0.04521      9.99961     6.93430    0.02087    16.95479
      C   11    0.05918      1.99920     3.91371    0.02791     5.94082
 =======================================================================
   * Total *    0.00000     31.99271    41.81271    0.19457    74.00000

                      1                      2                      3
                     A"                     A'                     A"
 Frequencies --    120.4973               202.3206               245.8579
 Red. masses --      6.2617                29.9584                 5.7127
 Frc consts  --      0.0536                 0.7225                 0.2035
 IR Inten    --      1.2585                 0.1654                 1.8295

                      4                      5                      6
                     A'                     A'                     A"
 Frequencies --    356.8488               424.8951               459.8236
 Red. masses --      9.6105                 9.8384                 4.4738
 Frc consts  --      0.7210                 1.0465                 0.5573
 IR Inten    --      1.8987                 2.3565                 0.0040

                      7                      8                      9
                     A'                     A"                     A'
 Frequencies --    478.1859               532.2968               660.4679
 Red. masses --     12.4699                 3.8969                 8.2953
 Frc consts  --      1.6800                 0.6505                 2.1320
 IR Inten    --     13.6979                 0.8529                10.6940

                     10                     11                     12
                     A"                     A'                     A"
 Frequencies --    742.9808               772.7493               809.7473
 Red. masses --      5.8261                 7.6766                 1.2802
 Frc consts  --      1.8949                 2.7008                 0.4946
 IR Inten    --      9.4376                25.0109                39.6744

                     13                     14                     15
                     A"                     A"                     A'
 Frequencies --    956.7566               993.2142              1042.5310
 Red. masses --      1.3478                 1.3568                 7.8037
 Frc consts  --      0.7269                 0.7886                 4.9973
 IR Inten    --      0.0640                 0.6334                71.0518

                     16                     17                     18
                     A'                     A'                     A'
 Frequencies --   1077.2946              1146.2092              1169.7224
 Red. masses --      2.9555                 1.4101                 2.6862
 Frc consts  --      2.0209                 1.0915                 2.1655
 IR Inten    --     13.5897                 4.9187                98.4718

                     19                     20                     21
                     A'                     A'                     A'
 Frequencies --   1257.1577              1285.6252              1428.9566
 Red. masses --      2.2471                 3.7691                 2.6940
 Frc consts  --      2.0924                 3.6704                 3.2410
 IR Inten    --      4.7013                 0.0740               153.7648

                     22                     23                     24
                     A'                     A'                     A'
 Frequencies --   1460.9086              1593.1171              1600.2439
 Red. masses --      1.9699                 5.8030                 6.0430
 Frc consts  --      2.4771                 8.6775                 9.1175
 IR Inten    --     11.3700                16.9221                26.7440

                     25                     26                     27
                     A'                     A'                     A'
 Frequencies --   3169.7218              3193.5545              3206.8590
 Red. masses --      1.0895                 1.0908                 1.0971
 Frc consts  --      6.4494                 6.5548                 6.6475
 IR Inten    --      8.6216                 5.5555                 3.2865

 - Thermochemistry -
 -------------------
 Temperature   298.150 Kelvin.  Pressure   1.00000 Atm.
 Atom     1 has atomic number  6 and mass  12.00000

 Molecular mass:   146.96425 amu.
 Principal axes and moments of inertia in atomic units:
                           1         2         3
     Eigenvalues --   946.477861230.093452176.57131
           X            0.99864  -0.05215   0.00000
           Y            0.05215   0.99864   0.00000
           Z            0.00000   0.00000   1.00000
 This molecule is an asymmetric top.
 Rotational symmetry number  1.
 Warning -- assumption of classical behavior for rotation
           may cause significant error
 Rotational temperatures (Kelvin)      0.09151     0.07041     0.03979
 Rotational constants (GHZ):           1.90680     1.46716     0.82917
 Zero-point vibrational energy     181763.9 (Joules/Mol)
                                   43.44260 (Kcal/Mol)
 Warning -- explicit consideration of   8 degrees of freedom as
           vibrations may cause significant error
 Vibrational temperatures:    173.37   291.09   353.73   513.43   611.33
          (Kelvin)            661.58   688.00   765.86   950.26  1068.98
                             1111.81  1165.04  1376.56  1429.01  1499.97
                             1549.98  1649.14  1682.97  1808.77  1849.73
                             2055.95  2101.92  2292.14  2302.39  4560.52
                             4594.81  4613.95

 Zero-point correction=                           0.069230 (Hartree/Particle)
 Thermal correction to Energy=                    0.075758
 Thermal correction to Enthalpy=                  0.076702
 Thermal correction to Gibbs Free Energy=         0.037347
 Sum of electronic and zero-point Energies=          -1167.523973
 Sum of electronic and thermal Energies=             -1167.517445
 Sum of electronic and thermal Enthalpies=           -1167.516501
 Sum of electronic and thermal Free Energies=        -1167.555856

                     E (Thermal)             CV                S
                      KCal/Mol        Cal/Mol-Kelvin    Cal/Mol-Kelvin
 Total                   47.539             23.808             82.828
 Electronic               0.000              0.000              0.000
 Translational            0.889              2.981             40.866
 Rotational               0.889              2.981             29.317
 Vibrational             45.761             17.846             12.645
 Vibration     1          0.609              1.932              3.092
 Vibration     2          0.639              1.837              2.112
 Vibration     3          0.660              1.770              1.760
 Vibration     4          0.732              1.561              1.136
 Vibration     5          0.787              1.416              0.876
 Vibration     6          0.818              1.339              0.767
 Vibration     7          0.835              1.298              0.715
 Vibration     8          0.887              1.179              0.582

 Optimization completed.
    -- Stationary point found.
 Normal termination of Gaussian 09 at Fri Apr 26 11:29:37 2024.
