 Gaussian 09, Revision D.01,
 Gaussian 09:  ES64L-G09RevD.01 24-Apr-2013

 ---------------------------------------------------------------------
 # b3lyp/6-311+g(d,p) geom=connectivity pop=(hirshfeld,chelpg,mbs,npa)
 ---------------------------------------------------------------------

 --------
 Table5_8
 --------
 Symbolic Z-matrix:
 Charge =  0 Multiplicity = 2

                         Standard orientation:
 ---------------------------------------------------------------------
 Center     Atomic      Atomic             Coordinates (Angstroms)
 Number     Number       Type             X           Y           Z
 ---------------------------------------------------------------------
      1          6           0        2.415366   -0.664433    0.000000
      2          6           0       -0.026297   -0.676386    0.000000
      3          6           0       -0.022459    0.749884    0.000000
      4          6           0        1.232984    1.438362    0.000000
      5          6           0        2.430782    0.707345    0.000000
      6          1           0       -1.204043   -2.473613    0.000000
      7          1           0        3.302040   -1.281069    0.000000
      8          1           0        1.198207   -2.341802    0.000001
      9          6           0       -1.225068   -1.387993    0.000000
     10          6           0       -1.272009    1.401121    0.000000
     11          1           0        1.244582    2.520850    0.000000
     12          1           0        3.387121    1.215486   -0.000001
     13          6           0       -2.465564    0.685967    0.000000
     14          6           0       -2.445569   -0.708588    0.000000
     15          1           0       -1.288212    2.485807    0.000000
     16          1           0       -3.411638    1.215020    0.000000
     17          1           0       -3.372202   -1.270314    0.000000
     18          7           0        1.201592   -1.334577    0.000000
 ---------------------------------------------------------------------

 SCF Done:  E(UB3LYP) =  -402.605638582     A.U. after   19 cycles

 The electronic state is 2-A.
 Alpha  occ. eigenvalues --  -14.36428 -10.22451 -10.21228 -10.18647 -10.17479
 Alpha  occ. eigenvalues --  -10.17361 -10.17270 -10.16945 -10.16817 -10.16811
 Alpha  occ. eigenvalues --   -0.97675  -0.85352  -0.80950  -0.76086  -0.74111
 Alpha  occ. eigenvalues --   -0.66251  -0.63316  -0.62522  -0.55025  -0.53492
 Alpha  occ. eigenvalues --   -0.51486  -0.48046  -0.45685  -0.44068  -0.43362
 Alpha  occ. eigenvalues --   -0.43092  -0.40721  -0.38709  -0.35490  -0.35348
 Alpha  occ. eigenvalues --   -0.34603  -0.31630  -0.26551  -0.24133  -0.13392
 Alpha virt. eigenvalues --   -0.02046  -0.00958  -0.00847   0.01317   0.01475
 Alpha virt. eigenvalues --    0.03314   0.03563   0.04873   0.05002   0.05759
 Alpha virt. eigenvalues --    0.05815   0.06403   0.07696   0.07947   0.09300

  Beta  occ. eigenvalues --  -14.35990 -10.22390 -10.20745 -10.18770 -10.17651
  Beta  occ. eigenvalues --  -10.17325 -10.17112 -10.16859 -10.16734 -10.16146
  Beta  occ. eigenvalues --   -0.96910  -0.85015  -0.80287  -0.75656  -0.73822
  Beta  occ. eigenvalues --   -0.65103  -0.63161  -0.62287  -0.54838  -0.53088
  Beta  occ. eigenvalues --   -0.51163  -0.47760  -0.45541  -0.43870  -0.43246
  Beta  occ. eigenvalues --   -0.41551  -0.40565  -0.38432  -0.35212  -0.34463
  Beta  occ. eigenvalues --   -0.34141  -0.29716  -0.25290  -0.22856
  Beta virt. eigenvalues --   -0.06056  -0.01638  -0.00917   0.00331   0.01326
  Beta virt. eigenvalues --    0.01486   0.03337   0.03566   0.05045   0.05099
  Beta virt. eigenvalues --    0.05774   0.05847   0.07625   0.07979   0.08176

 Mulliken charges and spin densities:
               1          2
     1  C   -0.058408   0.368181
     2  C   -1.533318   0.021000
     3  C    1.894093  -0.122049
     4  C    0.017609   0.508650
     5  C   -0.279484  -0.125145
     6  H    0.096865  -0.001659
     7  H    0.124893  -0.023498
     8  H    0.272255  -0.009966
     9  C   -0.500834   0.007469
    10  C   -0.150928   0.159333
    11  H    0.114142  -0.030837
    12  H    0.125341   0.005697
    13  C   -0.132204  -0.026044
    14  C   -0.243564   0.129974
    15  H    0.115739  -0.008428
    16  H    0.120582   0.000694
    17  H    0.121733  -0.008136
    18  N   -0.104510   0.154766
 Sum of Mulliken charges =   0.00000   1.00000

 Dipole moment (field-independent basis, Debye):
    X=              0.9692    Y=             -1.7185    Z=              0.0000  Tot=              1.9730
 Quadrupole moment (field-independent basis, Debye-Ang):
   XX=            -53.4293   YY=            -49.6988   ZZ=            -65.4503
   XY=             -2.5400   XZ=              0.0000   YZ=              0.0000

 ESP charges:
               1
     1  C   -0.059221
     2  C    0.279887
     3  C    0.218817
     4  C   -0.268945
     5  C   -0.077930
     6  H    0.136656
     7  H    0.101643
     8  H    0.316236
     9  C   -0.341363
    10  C   -0.276973
    11  H    0.112553
    12  H    0.085508
    13  C   -0.081045
    14  C   -0.040007
    15  H    0.128167
    16  H    0.080027
    17  H    0.078154
    18  N   -0.392166
 Sum of ESP charges =   0.00000

 Summary of Natural Population Analysis:

                                       Natural Population
                Natural  -----------------------------------------------
    Atom  No    Charge         Core      Valence    Rydberg      Total
 -----------------------------------------------------------------------
      C    1    0.14820      0.99960     1.84239    0.00981     2.85180
      C    2    0.11228      0.99947     1.87887    0.00937     2.88772
      C    3   -0.07350      0.99950     2.06602    0.00799     3.07350
      C    4    0.10280      0.99957     1.88931    0.00832     2.89720
      C    5   -0.17660      0.99958     2.16837    0.00864     3.17660
      H    6    0.09975      0.00000     0.39934    0.00091     0.40025
      H    7    0.09501      0.00000     0.40431    0.00067     0.40499
      H    8    0.19299      0.00000     0.30522    0.00179     0.30701
      C    9   -0.11828      0.99954     2.11030    0.00844     3.11828
      C   10   -0.03544      0.99955     2.02737    0.00852     3.03544
      H   11    0.09507      0.00000     0.40408    0.00085     0.40493
      H   12    0.10843      0.00000     0.39081    0.00076     0.39157
      C   13   -0.11700      0.99958     2.10828    0.00914     3.11700
      C   14   -0.04862      0.99959     2.04008    0.00896     3.04862
      H   15    0.09974      0.00000     0.39937    0.00089     0.40026
      H   16    0.10292      0.00000     0.39635    0.00073     0.39708
      H   17    0.10080      0.00000     0.39849    0.00072     0.39920
      N   18   -0.18854      0.99966     2.68248    0.00639     3.68854
 =======================================================================
   * Total *    0.50000      9.99566    23.91144    0.09290    34.00000

 Normal termination of Gaussian 09 at Fri Jul 23 17:35:44 2021.
