 Gaussian 09, Revision D.01,
 Gaussian 09:  ES64L-G09RevD.01 24-Apr-2013

 ----------------------------------------------------------------------
 # opt=rcfc geom=allcheck guess=read freq=noraman b3lyp/6-311+g(d,p) po
 p=(npa,hirshfeld,chelpg,mbs)
 ----------------------------------------------------------------------

 Structure from the checkpoint file:  "substitutedquinolines2_Marder.chk"
 -------------------
 Title Card Required
 -------------------
 Charge =  0 Multiplicity = 1

 SCF Done:  E(RB3LYP) =  -555.917471324     A.U. after    1 cycles
 SCF Done:  E(RB3LYP) =  -555.917471391     A.U. after    8 cycles
 Optimization completed.
    -- Stationary point found.
 Normal termination of Gaussian 09 at Tue Jan 10 09:37:15 2023.

 ----------------------------------------------------------------------
 #N Geom=AllCheck Guess=TCheck SCRF=Check GenChk RB3LYP/6-311+G(d,p) Fr
 eq
 ----------------------------------------------------------------------

 Structure from the checkpoint file:  "substitutedquinolines2_Marder.chk"
 -------------------
 Title Card Required
 -------------------
 Charge =  0 Multiplicity = 1

                         Standard orientation:
 ---------------------------------------------------------------------
 Center     Atomic      Atomic             Coordinates (Angstroms)
 Number     Number       Type             X           Y           Z
 ---------------------------------------------------------------------
      1          6           0        1.753767   -1.172587   -0.000003
      2          6           0        0.433521   -1.565054    0.000000
      3          6           0       -0.612357   -0.614507    0.000000
      4          6           0       -0.267361    0.771432   -0.000002
      5          6           0        1.088657    1.158081   -0.000006
      6          6           0        2.088519    0.204748   -0.000007
      7          1           0        2.530519   -1.925607   -0.000002
      8          1           0        0.165366   -2.614827    0.000003
      9          6           0       -1.344841    1.697514    0.000004
     10          1           0        1.361015    2.207516   -0.000007
     11          6           0       -2.631327    1.233295    0.000007
     12          6           0       -2.879497   -0.172643    0.000002
     13          1           0       -1.135518    2.762477    0.000007
     14          1           0       -3.469276    1.921781    0.000012
     15          7           0       -1.904875   -1.056420    0.000000
     16          6           0       -4.297341   -0.684364   -0.000003
     17          1           0       -4.842497   -0.330595    0.881227
     18          1           0       -4.842495   -0.330582   -0.881229
     19          1           0       -4.296781   -1.773696   -0.000011
     20          8           0        3.372932    0.670667   -0.000012
     21          6           0        4.445771   -0.261851    0.000013
     22          1           0        4.429720   -0.893574   -0.894635
     23          1           0        5.355846    0.335866    0.000018
     24          1           0        4.429696   -0.893553    0.894675
 ---------------------------------------------------------------------

 SCF Done:  E(RB3LYP) =  -555.917471391     A.U. after    1 cycles

 The electronic state is 1-A.
 Alpha  occ. eigenvalues --  -19.16055 -14.30504 -10.24278 -10.23217 -10.21606
 Alpha  occ. eigenvalues --  -10.20718 -10.19226 -10.19179 -10.18526 -10.18249
 Alpha  occ. eigenvalues --  -10.18047 -10.17608 -10.16511  -1.07563  -0.94697
 Alpha  occ. eigenvalues --   -0.85638  -0.81104  -0.77642  -0.75727  -0.72185
 Alpha  occ. eigenvalues --   -0.69242  -0.64256  -0.61137  -0.60675  -0.54216
 Alpha  occ. eigenvalues --   -0.53608  -0.51246  -0.48358  -0.47897  -0.46248
 Alpha  occ. eigenvalues --   -0.44365  -0.43501  -0.42863  -0.42318  -0.40828
 Alpha  occ. eigenvalues --   -0.40202  -0.39113  -0.38034  -0.36632  -0.36480
 Alpha  occ. eigenvalues --   -0.33870  -0.31387  -0.30566  -0.25794  -0.24948
 Alpha  occ. eigenvalues --   -0.22024
 Alpha virt. eigenvalues --   -0.05828  -0.01901  -0.00015   0.00243   0.00642
 Alpha virt. eigenvalues --    0.01809   0.02627   0.02761   0.04098   0.04355
 Alpha virt. eigenvalues --    0.04879   0.05117   0.05125   0.06425   0.07304

 Mulliken charges:
               1
     1  C    0.338887
     2  C   -0.416257
     3  C   -1.485763
     4  C    1.953354
     5  C   -0.568348
     6  C   -0.268533
     7  H    0.124665
     8  H    0.130171
     9  C   -0.183842
    10  H    0.118147
    11  C   -0.288582
    12  C    0.068115
    13  H    0.124486
    14  H    0.127688
    15  N    0.074756
    16  C   -0.343387
    17  H    0.154621
    18  H    0.154621
    19  H    0.160733
    20  O   -0.185328
    21  C   -0.244911
    22  H    0.147381
    23  H    0.159945
    24  H    0.147381
 Sum of Mulliken charges =   0.00000

 Dipole moment (field-independent basis, Debye):
    X=              1.1647    Y=              0.5826    Z=              0.0000  Tot=              1.3023
 Quadrupole moment (field-independent basis, Debye-Ang):
   XX=            -61.4106   YY=            -74.3110   ZZ=            -80.4513
   XY=             -9.2685   XZ=              0.0001   YZ=              0.0000

  Exact polarizability: 229.042  -8.842 137.025   0.000   0.000  79.613
 Approx polarizability: 335.829 -15.768 240.779   0.000   0.000 123.778

 ESP charges:
               1
     1  C   -0.214535
     2  C   -0.258377
     3  C    0.471953
     4  C    0.022476
     5  C   -0.374957
     6  C    0.416056
     7  H    0.141090
     8  H    0.145279
     9  C   -0.009885
    10  H    0.156604
    11  C   -0.390286
    12  C    0.588098
    13  H    0.102988
    14  H    0.141894
    15  N   -0.709852
    16  C   -0.206931
    17  H    0.044439
    18  H    0.044441
    19  H    0.064119
    20  O   -0.411659
    21  C    0.203692
    22  H   -0.002131
    23  H    0.037616
    24  H   -0.002133
 Sum of ESP charges =   0.00000

 Summary of Natural Population Analysis:

                                       Natural Population
                Natural  -----------------------------------------------
    Atom  No    Charge         Core      Valence    Rydberg      Total
 -----------------------------------------------------------------------
      C    1   -0.26938      1.99907     4.25582    0.01449     6.26938
      C    2   -0.16366      1.99910     4.14593    0.01863     6.16366
      C    3    0.15025      1.99894     3.82740    0.02342     5.84975
      C    4   -0.07967      1.99898     4.06584    0.01485     6.07967
      C    5   -0.22877      1.99900     4.21278    0.01699     6.22877
      C    6    0.32303      1.99878     3.65554    0.02264     5.67697
      H    7    0.21287      0.00000     0.78530    0.00183     0.78713
      H    8    0.21690      0.00000     0.77889    0.00421     0.78310
      C    9   -0.14213      1.99908     4.12599    0.01706     6.14213
      H   10    0.21591      0.00000     0.78051    0.00358     0.78409
      C   11   -0.23839      1.99905     4.22354    0.01580     6.23839
      C   12    0.22632      1.99916     3.74893    0.02559     5.77368
      H   13    0.20568      0.00000     0.79152    0.00280     0.79432
      H   14    0.20938      0.00000     0.78905    0.00157     0.79062
      N   15   -0.46205      1.99931     5.44133    0.02140     7.46205
      C   16   -0.60430      1.99930     4.59532    0.00969     6.60430
      H   17    0.21034      0.00000     0.78830    0.00136     0.78966
      H   18    0.21034      0.00000     0.78830    0.00136     0.78966
      H   19    0.22422      0.00000     0.77371    0.00207     0.77578
      O   20   -0.54197      1.99971     6.52523    0.01703     8.54197
      C   21   -0.20794      1.99926     4.19298    0.01570     6.20794
      H   22    0.17002      0.00000     0.82778    0.00220     0.82998
      H   23    0.19298      0.00000     0.80594    0.00108     0.80702
      H   24    0.17002      0.00000     0.82778    0.00220     0.82998
 =======================================================================
   * Total *    0.00000     25.98875    65.75370    0.25755    92.00000

                      1                      2                      3
                      A                      A                      A
 Frequencies --     57.1704                69.8842                98.0128
 Red. masses --      2.6527                 1.1534                 3.4099
 Frc consts  --      0.0051                 0.0033                 0.0193
 IR Inten    --      3.6921                 0.1468                 1.5194

                      4                      5                      6
                      A                      A                      A
 Frequencies --    173.0222               189.0050               201.7128
 Red. masses --      3.9343                 3.4751                 2.2935
 Frc consts  --      0.0694                 0.0731                 0.0550
 IR Inten    --      1.9879                 2.9799                 3.0028

                      7                      8                      9
                      A                      A                      A
 Frequencies --    255.9776               294.3540               344.7574
 Red. masses --      1.4099                 3.0267                 5.0032
 Frc consts  --      0.0544                 0.1545                 0.3504
 IR Inten    --      3.6609                 2.0104                 0.1891

                     10                     11                     12
                      A                      A                      A
 Frequencies --    360.7338               423.3702               441.6965
 Red. masses --      3.9440                 3.7899                 3.7313
 Frc consts  --      0.3024                 0.4002                 0.4289
 IR Inten    --      0.0376                 1.6180                 1.1697

                     13                     14                     15
                      A                      A                      A
 Frequencies --    489.5563               525.1884               549.9750
 Red. masses --      3.2554                 4.6980                 5.9137
 Frc consts  --      0.4597                 0.7635                 1.0539
 IR Inten    --      3.8307                 6.3826                 0.4887

                     16                     17                     18
                      A                      A                      A
 Frequencies --    569.0063               603.6820               672.6125
 Red. masses --      2.8778                 5.6323                 3.2228
 Frc consts  --      0.5490                 1.2094                 0.8590
 IR Inten    --      0.2556                13.1423                 2.5942

                     19                     20                     21
                      A                      A                      A
 Frequencies --    683.9561               761.0066               776.2300
 Red. masses --      5.7508                 6.2656                 2.6583
 Frc consts  --      1.5850                 2.1379                 0.9437
 IR Inten    --      7.6825                 2.5948                 0.2709

                     22                     23                     24
                      A                      A                      A
 Frequencies --    820.2233               834.3892               839.2038
 Red. masses --      1.3329                 4.5354                 1.9820
 Frc consts  --      0.5283                 1.8604                 0.8224
 IR Inten    --     12.1791                13.4601                31.9983

                     25                     26                     27
                      A                      A                      A
 Frequencies --    881.3143               929.5883               967.8327
 Red. masses --      1.5769                 3.6169                 3.1285
 Frc consts  --      0.7216                 1.8415                 1.7266
 IR Inten    --     38.8971                 3.4843                 1.5130

                     28                     29                     30
                      A                      A                      A
 Frequencies --    970.4085               990.8690              1024.0477
 Red. masses --      1.3107                 1.3125                 1.8774
 Frc consts  --      0.7272                 0.7593                 1.1600
 IR Inten    --      1.5582                 1.1101                 9.4216

                     31                     32                     33
                      A                      A                      A
 Frequencies --   1054.7172              1061.6729              1145.5069
 Red. masses --      1.5755                 3.5261                 1.5012
 Frc consts  --      1.0326                 2.3417                 1.1606
 IR Inten    --      2.0857                49.8279                35.8037

                     34                     35                     36
                      A                      A                      A
 Frequencies --   1168.7004              1170.3334              1181.6322
 Red. masses --      1.2707                 1.2937                 1.7383
 Frc consts  --      1.0226                 1.0440                 1.4300
 IR Inten    --      0.7223                10.3179               101.9586

                     37                     38                     39
                      A                      A                      A
 Frequencies --   1202.7940              1239.7917              1275.3771
 Red. masses --      1.5759                 2.0656                 2.5643
 Frc consts  --      1.3432                 1.8706                 2.4575
 IR Inten    --      0.8028                 6.6203                63.4768

                     40                     41                     42
                      A                      A                      A
 Frequencies --   1289.9346              1335.8392              1369.8771
 Red. masses --      2.6129                 3.0987                 3.8481
 Frc consts  --      2.5616                 3.2579                 4.2546
 IR Inten    --    231.0371                17.4132                45.6263

                     43                     44                     45
                      A                      A                      A
 Frequencies --   1396.7430              1404.4406              1426.3899
 Red. masses --      5.1348                 1.3083                 3.1075
 Frc consts  --      5.9021                 1.5205                 3.7251
 IR Inten    --      3.2576                 9.2711                 1.9939

                     46                     47                     48
                      A                      A                      A
 Frequencies --   1474.6659              1482.3464              1485.0175
 Red. masses --      1.1807                 1.1602                 1.0445
 Frc consts  --      1.5128                 1.5021                 1.3571
 IR Inten    --      9.5957                 5.5348                 8.0194

                     49                     50                     51
                      A                      A                      A
 Frequencies --   1495.6105              1505.0881              1515.4304
 Red. masses --      1.0455                 1.1001                 2.7560
 Frc consts  --      1.3778                 1.4683                 3.7291
 IR Inten    --      9.2926                46.3436                 3.7012

                     52                     53                     54
                      A                      A                      A
 Frequencies --   1536.9771              1592.4844              1644.7507
 Red. masses --      3.1635                 6.9255                 6.3707
 Frc consts  --      4.4031                10.3479                10.1540
 IR Inten    --    127.1688                28.0168                99.2315

                     55                     56                     57
                      A                      A                      A
 Frequencies --   1662.3851              3005.3362              3022.8977
 Red. masses --      6.6101                 1.0345                 1.0389
 Frc consts  --     10.7627                 5.5053                 5.5934
 IR Inten    --     59.6006                69.7221                27.1627

                     58                     59                     60
                      A                      A                      A
 Frequencies --   3064.5873              3069.9336              3131.8897
 Red. masses --      1.1063                 1.0997                 1.0989
 Frc consts  --      6.1215                 6.1061                 6.3509
 IR Inten    --     37.7031                16.8162                 8.2482

                     61                     62                     63
                      A                      A                      A
 Frequencies --   3132.9409              3159.6017              3177.9840
 Red. masses --      1.0991                 1.0871                 1.0935
 Frc consts  --      6.3559                 6.3943                 6.5067
 IR Inten    --     23.4285                 5.2268                10.4874

                     64                     65                     66
                      A                      A                      A
 Frequencies --   3179.5959              3187.3584              3208.3583
 Red. masses --      1.0933                 1.0887                 1.0928
 Frc consts  --      6.5124                 6.5163                 6.6274
 IR Inten    --     16.1539                 1.4717                 8.1690

 - Thermochemistry -
 -------------------
 Temperature   298.150 Kelvin.  Pressure   1.00000 Atm.
 Atom     1 has atomic number  6 and mass  12.00000

 Molecular mass:   173.08406 amu.
 Principal axes and moments of inertia in atomic units:
                           1         2         3
     Eigenvalues --   684.901394164.873824827.07309
           X            0.99997  -0.00753   0.00000
           Y            0.00753   0.99997   0.00000
           Z            0.00000   0.00000   1.00000
 This molecule is an asymmetric top.
 Rotational symmetry number  1.
 Warning -- assumption of classical behavior for rotation
           may cause significant error
 Rotational temperatures (Kelvin)      0.12646     0.02080     0.01794
 Rotational constants (GHZ):           2.63504     0.43332     0.37388
 Zero-point vibrational energy     509954.7 (Joules/Mol)
                                  121.88211 (Kcal/Mol)
 Warning -- explicit consideration of  17 degrees of freedom as
           vibrations may cause significant error
 Vibrational temperatures:     82.26   100.55   141.02   248.94   271.94
          (Kelvin)            290.22   368.29   423.51   496.03   519.01
                              609.13   635.50   704.36   755.63   791.29
                              818.67   868.56   967.74   984.06  1094.92
                             1116.82  1180.12  1200.50  1207.43  1268.01
                             1337.47  1392.49  1396.20  1425.64  1473.37
                             1517.50  1527.51  1648.13  1681.50  1683.85
                             1700.10  1730.55  1783.78  1834.98  1855.93
                             1921.97  1970.95  2009.60  2020.67  2052.25
                             2121.71  2132.76  2136.61  2151.85  2165.48
                             2180.36  2211.36  2291.23  2366.43  2391.80
                             4324.00  4349.27  4409.25  4416.94  4506.09
                             4507.60  4545.96  4572.40  4574.72  4585.89
                             4616.11

 Zero-point correction=                           0.194232 (Hartree/Particle)
 Thermal correction to Energy=                    0.205464
 Thermal correction to Enthalpy=                  0.206408
 Thermal correction to Gibbs Free Energy=         0.156869
 Sum of electronic and zero-point Energies=           -555.723240
 Sum of electronic and thermal Energies=              -555.712008
 Sum of electronic and thermal Enthalpies=            -555.711063
 Sum of electronic and thermal Free Energies=         -555.760602

                     E (Thermal)             CV                S
                      KCal/Mol        Cal/Mol-Kelvin    Cal/Mol-Kelvin
 Total                  128.930             43.500            104.263
 Electronic               0.000              0.000              0.000
 Translational            0.889              2.981             41.353
 Rotational               0.889              2.981             30.999
 Vibrational            127.153             37.539             31.910
 Vibration     1          0.596              1.975              4.553
 Vibration     2          0.598              1.968              4.157
 Vibration     3          0.603              1.951              3.493
 Vibration     4          0.627              1.876              2.402
 Vibration     5          0.633              1.855              2.238
 Vibration     6          0.639              1.837              2.117
 Vibration     7          0.666              1.753              1.689
 Vibration     8          0.689              1.684              1.449
 Vibration     9          0.723              1.586              1.190
 Vibration    10          0.735              1.553              1.119
 Vibration    11          0.786              1.419              0.881
 Vibration    12          0.801              1.379              0.821
 Vibration    13          0.845              1.273              0.685
 Vibration    14          0.880              1.194              0.598
 Vibration    15          0.905              1.140              0.544
 Vibration    16          0.925              1.098              0.506
 Vibration    17          0.962              1.024              0.443

 Optimization completed.
    -- Stationary point found.
 Normal termination of Gaussian 09 at Tue Jan 10 09:42:06 2023.
