 Gaussian 09, Revision D.01,
 Gaussian 09:  ES64L-G09RevD.01 24-Apr-2013

 ----------------------------------------------------------------------
 # opt freq=noraman b3lyp/6-311+g(d,p) pop=(npa,hirshfeld,chelpg,mbs) g
 eom=connectivity
 ----------------------------------------------------------------------

 -------------------
 Title Card Required
 -------------------
 Symbolic Z-matrix:
 Charge =  0 Multiplicity = 1

 SCF Done:  E(RB3LYP) =  -480.690715161     A.U. after   14 cycles
 Optimization completed.
    -- Stationary point found.
 Normal termination of Gaussian 09 at Fri Apr 26 11:24:50 2024.

 ----------------------------------------------------------------------
 #N Geom=AllCheck Guess=TCheck SCRF=Check GenChk RB3LYP/6-311+G(d,p) Fr
 eq
 ----------------------------------------------------------------------

 Structure from the checkpoint file:  "comp152.chk"
 -------------------
 Title Card Required
 -------------------
 Charge =  0 Multiplicity = 1

                         Standard orientation:
 ---------------------------------------------------------------------
 Center     Atomic      Atomic             Coordinates (Angstroms)
 Number     Number       Type             X           Y           Z
 ---------------------------------------------------------------------
      1          6           0       -0.044010   -0.382531   -0.000001
      2          6           0       -0.019034    1.042952    0.000000
      3          6           0       -1.266872    1.712586    0.000000
      4          6           0       -2.424381    0.980045    0.000000
      5          1           0        1.132833   -2.175150    0.000000
      6          6           0        1.183711   -1.092012   -0.000001
      7          6           0        1.233883    1.706131    0.000000
      8          1           0       -1.292987    2.797895    0.000000
      9          1           0       -3.392745    1.467916    0.000001
     10          6           0        2.403488    0.987205    0.000000
     11          6           0        2.395235   -0.435030    0.000000
     12          1           0        1.256094    2.791386    0.000000
     13          1           0        3.355659    1.508344    0.000000
     14          7           0       -1.209058   -1.094621   -0.000001
     15          6           0       -3.624101   -1.255995    0.000001
     16          1           0       -4.233434   -1.030566    0.881245
     17          1           0       -4.233436   -1.030567   -0.881243
     18          1           0       -3.383004   -2.318208    0.000000
     19          6           0        3.702052   -1.188261    0.000001
     20          1           0        4.301722   -0.936648   -0.880743
     21          1           0        4.301719   -0.936650    0.880747
     22          1           0        3.539345   -2.267333   -0.000001
     23          6           0       -2.354698   -0.443103    0.000000
 ---------------------------------------------------------------------

 SCF Done:  E(RB3LYP) =  -480.690715161     A.U. after    2 cycles

 The electronic state is 1-A.
 Alpha  occ. eigenvalues --  -14.30496 -10.21888 -10.21024 -10.19423 -10.19057
 Alpha  occ. eigenvalues --  -10.18886 -10.18364 -10.18231 -10.17930 -10.17178
 Alpha  occ. eigenvalues --  -10.17120 -10.16619  -0.94778  -0.85922  -0.81381
 Alpha  occ. eigenvalues --   -0.78334  -0.75490  -0.71847  -0.69117  -0.62278
 Alpha  occ. eigenvalues --   -0.61718  -0.60568  -0.52109  -0.51501  -0.50177
 Alpha  occ. eigenvalues --   -0.45445  -0.44548  -0.44190  -0.43731  -0.42595
 Alpha  occ. eigenvalues --   -0.40559  -0.40376  -0.39431  -0.39145  -0.38111
 Alpha  occ. eigenvalues --   -0.35761  -0.35164  -0.33141  -0.30900  -0.25808
 Alpha  occ. eigenvalues --   -0.24685  -0.23621
 Alpha virt. eigenvalues --   -0.05629  -0.02726   0.00229   0.00244   0.00952
 Alpha virt. eigenvalues --    0.01543   0.02943   0.03604   0.04221   0.04633
 Alpha virt. eigenvalues --    0.04872   0.04931   0.06012   0.06527   0.06666

 Mulliken charges:
               1
     1  C   -1.812204
     2  C    1.738882
     3  C   -0.435210
     4  C   -0.099813
     5  H    0.116874
     6  C   -0.364237
     7  C    0.086430
     8  H    0.123508
     9  H    0.127343
    10  C   -0.377603
    11  C    0.356391
    12  H    0.118514
    13  H    0.123062
    14  N    0.080439
    15  C   -0.350789
    16  H    0.155772
    17  H    0.155772
    18  H    0.161700
    19  C   -0.398699
    20  H    0.157036
    21  H    0.157036
    22  H    0.142411
    23  C    0.037386
 Sum of Mulliken charges =   0.00000

 Dipole moment (field-independent basis, Debye):
    X=              0.1894    Y=              1.6693    Z=              0.0000  Tot=              1.6800
 Quadrupole moment (field-independent basis, Debye-Ang):
   XX=            -59.6666   YY=            -68.4004   ZZ=            -75.2604
   XY=             -2.4829   XZ=              0.0000   YZ=              0.0000

  Exact polarizability: 211.357  -0.346 136.268   0.000   0.000  77.010
 Approx polarizability: 321.723   0.338 230.355   0.000   0.000 120.673

 ESP charges:
               1
     1  C    0.555540
     2  C   -0.060553
     3  C   -0.025185
     4  C   -0.373300
     5  H    0.158422
     6  C   -0.409054
     7  C   -0.134446
     8  H    0.105535
     9  H    0.138192
    10  C   -0.233310
    11  C    0.253435
    12  H    0.105196
    13  H    0.129291
    14  N   -0.720052
    15  C   -0.198820
    16  H    0.041417
    17  H    0.041418
    18  H    0.065328
    19  C   -0.205398
    20  H    0.054666
    21  H    0.054666
    22  H    0.070101
    23  C    0.586912
 Sum of ESP charges =   0.00000

 Summary of Natural Population Analysis:

                                       Natural Population
                Natural  -----------------------------------------------
    Atom  No    Charge         Core      Valence    Rydberg      Total
 -----------------------------------------------------------------------
      C    1    0.18081      1.99895     3.79602    0.02422     5.81919
      C    2   -0.10293      1.99896     4.08901    0.01495     6.10293
      C    3   -0.13419      1.99908     4.11822    0.01689     6.13419
      C    4   -0.24798      1.99905     4.23298    0.01595     6.24798
      H    5    0.21653      0.00000     0.78096    0.00250     0.78347
      C    6   -0.19210      1.99896     4.17511    0.01803     6.19210
      C    7   -0.17052      1.99909     4.15459    0.01683     6.17052
      H    8    0.20490      0.00000     0.79230    0.00280     0.79510
      H    9    0.20969      0.00000     0.78872    0.00159     0.79031
      C   10   -0.20040      1.99906     4.18459    0.01675     6.20040
      C   11   -0.02228      1.99905     4.00777    0.01546     6.02228
      H   12    0.20269      0.00000     0.79431    0.00299     0.79731
      H   13    0.20438      0.00000     0.79403    0.00159     0.79562
      N   14   -0.46998      1.99931     5.44816    0.02252     7.46998
      C   15   -0.60507      1.99930     4.59601    0.00977     6.60507
      H   16    0.21127      0.00000     0.78737    0.00135     0.78873
      H   17    0.21127      0.00000     0.78737    0.00135     0.78873
      H   18    0.22474      0.00000     0.77317    0.00209     0.77526
      C   19   -0.58986      1.99931     4.58058    0.00997     6.58986
      H   20    0.21161      0.00000     0.78696    0.00143     0.78839
      H   21    0.21161      0.00000     0.78696    0.00143     0.78839
      H   22    0.20902      0.00000     0.78967    0.00132     0.79098
      C   23    0.23679      1.99916     3.73837    0.02568     5.76321
 =======================================================================
   * Total *    0.00000     23.98929    59.78324    0.22748    84.00000

                      1                      2                      3
                      A                      A                      A
 Frequencies --     52.9901                86.9350               118.0897
 Red. masses --      1.0479                 1.1151                 2.9479
 Frc consts  --      0.0017                 0.0050                 0.0242
 IR Inten    --      0.4079                 0.8083                 3.7569

                      4                      5                      6
                      A                      A                      A
 Frequencies --    121.6568               224.7177               268.4888
 Red. masses --      3.2205                 2.9923                 3.6547
 Frc consts  --      0.0281                 0.0890                 0.1552
 IR Inten    --      0.0239                 1.6570                 0.0522

                      7                      8                      9
                      A                      A                      A
 Frequencies --    292.6491               336.5619               419.5842
 Red. masses --      3.8447                 2.7584                 3.3496
 Frc consts  --      0.1940                 0.1841                 0.3474
 IR Inten    --      1.2468                 2.8057                 1.4688

                     10                     11                     12
                      A                      A                      A
 Frequencies --    436.1236               466.0630               483.6351
 Red. masses --      4.7613                 3.8745                 4.5452
 Frc consts  --      0.5336                 0.4959                 0.6264
 IR Inten    --      1.5139                 1.8181                 0.2478

                     13                     14                     15
                      A                      A                      A
 Frequencies --    487.8273               575.2136               643.8135
 Red. masses --      2.8897                 3.4132                 7.8322
 Frc consts  --      0.4052                 0.6654                 1.9127
 IR Inten    --      7.3929                 5.1062                 3.4223

                     16                     17                     18
                      A                      A                      A
 Frequencies --    662.5767               688.2568               780.9857
 Red. masses --      3.0226                 5.1322                 4.9822
 Frc consts  --      0.7818                 1.4324                 1.7904
 IR Inten    --      1.1244                 0.7108                 0.6054

                     19                     20                     21
                      A                      A                      A
 Frequencies --    787.3051               795.4172               797.9376
 Red. masses --      5.3538                 3.3329                 1.2912
 Frc consts  --      1.9552                 1.2424                 0.4844
 IR Inten    --      1.7856                 5.7543                 1.3087

                     22                     23                     24
                      A                      A                      A
 Frequencies --    852.1254               910.2843               949.7565
 Red. masses --      1.5359                 1.4477                 2.1628
 Frc consts  --      0.6571                 0.7068                 1.1494
 IR Inten    --     51.4283                 9.2904                 1.9718

                     25                     26                     27
                      A                      A                      A
 Frequencies --    965.7603               975.1777               992.0334
 Red. masses --      3.8707                 1.3031                 1.3298
 Frc consts  --      2.1271                 0.7301                 0.7711
 IR Inten    --      2.4693                 0.4445                 1.4375

                     28                     29                     30
                      A                      A                      A
 Frequencies --   1006.9836              1046.0132              1056.1644
 Red. masses --      1.5679                 1.7119                 1.5841
 Frc consts  --      0.9368                 1.1036                 1.0411
 IR Inten    --     16.2160                 1.6199                 1.9797

                     31                     32                     33
                      A                      A                      A
 Frequencies --   1063.5702              1143.8541              1171.9582
 Red. masses --      1.5373                 1.5747                 1.2666
 Frc consts  --      1.0246                 1.2139                 1.0250
 IR Inten    --      3.7387                 3.6432                 6.1810

                     34                     35                     36
                      A                      A                      A
 Frequencies --   1190.5873              1232.8922              1242.6979
 Red. masses --      1.9374                 2.8363                 2.2677
 Frc consts  --      1.6181                 2.5401                 2.0633
 IR Inten    --      4.3097                 0.0107                11.1917

                     37                     38                     39
                      A                      A                      A
 Frequencies --   1281.0599              1329.5112              1375.6167
 Red. masses --      1.6447                 3.2589                 3.3333
 Frc consts  --      1.5903                 3.3940                 3.7163
 IR Inten    --      0.2451                10.3106                 6.5758

                     40                     41                     42
                      A                      A                      A
 Frequencies --   1394.9113              1406.3300              1415.7097
 Red. masses --      5.0799                 1.3131                 1.2738
 Frc consts  --      5.8237                 1.5301                 1.5042
 IR Inten    --      7.1774                 6.6747                 1.3586

                     43                     44                     45
                      A                      A                      A
 Frequencies --   1441.9717              1477.4791              1482.0374
 Red. masses --      2.6128                 2.0019                 1.1659
 Frc consts  --      3.2009                 2.5747                 1.5088
 IR Inten    --      6.5356                17.4572                12.2220

                     46                     47                     48
                      A                      A                      A
 Frequencies --   1485.6662              1486.0427              1503.0988
 Red. masses --      1.0441                 1.0433                 1.3749
 Frc consts  --      1.3578                 1.3574                 1.8302
 IR Inten    --      5.0842                10.4888                 4.7597

                     49                     50                     51
                      A                      A                      A
 Frequencies --   1543.4432              1594.8207              1644.3305
 Red. masses --      3.3052                 6.6239                 6.3157
 Frc consts  --      4.6391                 9.9263                10.0612
 IR Inten    --     49.0797                13.2486                64.3938

                     52                     53                     54
                      A                      A                      A
 Frequencies --   1664.3809              3021.5697              3024.4146
 Red. masses --      6.2115                 1.0377                 1.0389
 Frc consts  --     10.1380                 5.5821                 5.5992
 IR Inten    --     47.7137                36.1245                21.5291

                     55                     56                     57
                      A                      A                      A
 Frequencies --   3068.2306              3071.9273              3107.1329
 Red. masses --      1.1001                 1.0996                 1.0998
 Frc consts  --      6.1015                 6.1139                 6.2556
 IR Inten    --     16.3492                15.8724                15.6192

                     58                     59                     60
                      A                      A                      A
 Frequencies --   3133.0649              3152.8356              3158.1046
 Red. masses --      1.0991                 1.0863                 1.0876
 Frc consts  --      6.3565                 6.3622                 6.3908
 IR Inten    --      8.0098                 4.0128                 5.7731

                     61                     62                     63
                      A                      A                      A
 Frequencies --   3170.8450              3179.2480              3180.0671
 Red. masses --      1.0952                 1.0954                 1.0913
 Frc consts  --      6.4876                 6.5234                 6.5023
 IR Inten    --     26.5343                22.3273                 1.6460

 - Thermochemistry -
 -------------------
 Temperature   298.150 Kelvin.  Pressure   1.00000 Atm.
 Atom     1 has atomic number  6 and mass  12.00000

 Molecular mass:   157.08915 amu.
 Principal axes and moments of inertia in atomic units:
                           1         2         3
     Eigenvalues --   793.918712858.176683629.74838
           X            0.99999  -0.00349   0.00000
           Y            0.00349   0.99999   0.00000
           Z            0.00000   0.00000   1.00000
 This molecule is an asymmetric top.
 Rotational symmetry number  1.
 Warning -- assumption of classical behavior for rotation
           may cause significant error
 Rotational temperatures (Kelvin)      0.10910     0.03030     0.02386
 Rotational constants (GHZ):           2.27321     0.63143     0.49721
 Zero-point vibrational energy     497171.2 (Joules/Mol)
                                  118.82677 (Kcal/Mol)
 Warning -- explicit consideration of  14 degrees of freedom as
           vibrations may cause significant error
 Vibrational temperatures:     76.24   125.08   169.90   175.04   323.32
          (Kelvin)            386.30   421.06   484.24   603.69   627.48
                              670.56   695.84   701.87   827.60   926.30
                              953.30   990.25  1123.66  1132.76  1144.43
                             1148.05  1226.02  1309.69  1366.49  1389.51
                             1403.06  1427.31  1448.82  1504.98  1519.58
                             1530.24  1645.75  1686.18  1712.99  1773.85
                             1787.96  1843.16  1912.87  1979.20  2006.96
                             2023.39  2036.89  2074.67  2125.76  2132.32
                             2137.54  2138.08  2162.62  2220.67  2294.59
                             2365.82  2394.67  4347.36  4351.45  4414.49
                             4419.81  4470.47  4507.78  4536.22  4543.80
                             4562.13  4574.22  4575.40

 Zero-point correction=                           0.189363 (Hartree/Particle)
 Thermal correction to Energy=                    0.199727
 Thermal correction to Enthalpy=                  0.200671
 Thermal correction to Gibbs Free Energy=         0.153078
 Sum of electronic and zero-point Energies=           -480.501353
 Sum of electronic and thermal Energies=              -480.490988
 Sum of electronic and thermal Enthalpies=            -480.490044
 Sum of electronic and thermal Free Energies=         -480.537637

                     E (Thermal)             CV                S
                      KCal/Mol        Cal/Mol-Kelvin    Cal/Mol-Kelvin
 Total                  125.331             40.221            100.169
 Electronic               0.000              0.000              0.000
 Translational            0.889              2.981             41.064
 Rotational               0.889              2.981             30.489
 Vibrational            123.553             34.259             28.616
 Vibration     1          0.596              1.976              4.703
 Vibration     2          0.601              1.958              3.728
 Vibration     3          0.608              1.934              3.131
 Vibration     4          0.609              1.931              3.074
 Vibration     5          0.649              1.803              1.921
 Vibration     6          0.673              1.731              1.606
 Vibration     7          0.688              1.687              1.459
 Vibration     8          0.717              1.602              1.228
 Vibration     9          0.782              1.428              0.893
 Vibration    10          0.797              1.391              0.839
 Vibration    11          0.823              1.325              0.749
 Vibration    12          0.840              1.286              0.700
 Vibration    13          0.844              1.277              0.689
 Vibration    14          0.932              1.085              0.494

 Optimization completed.
    -- Stationary point found.
 Normal termination of Gaussian 09 at Fri Apr 26 11:28:48 2024.
