 Gaussian 09, Revision D.01,
 Gaussian 09:  ES64L-G09RevD.01 24-Apr-2013

 ----------------------------------------------------------------------
 # opt freq=noraman b3lyp/6-311+g(d,p) pop=(npa,hirshfeld,chelpg,mbs) g
 eom=connectivity
 ----------------------------------------------------------------------

 -------------------
 Title Card Required
 -------------------
 Symbolic Z-matrix:
 Charge =  0 Multiplicity = 1

 SCF Done:  E(RB3LYP) =  -554.923161270     A.U. after   16 cycles
 SCF Done:  E(RB3LYP) =  -554.937882121     A.U. after   14 cycles
 SCF Done:  E(RB3LYP) =  -554.943224009     A.U. after   13 cycles
 SCF Done:  E(RB3LYP) =  -554.943588231     A.U. after   11 cycles
 SCF Done:  E(RB3LYP) =  -554.943596642     A.U. after   11 cycles
 SCF Done:  E(RB3LYP) =  -554.943499169     A.U. after   11 cycles
 SCF Done:  E(RB3LYP) =  -554.943617375     A.U. after   11 cycles
 SCF Done:  E(RB3LYP) =  -554.943618423     A.U. after    9 cycles
 SCF Done:  E(RB3LYP) =  -554.943618613     A.U. after    9 cycles
 SCF Done:  E(RB3LYP) =  -554.943619512     A.U. after   11 cycles
 SCF Done:  E(RB3LYP) =  -554.945023804     A.U. after   14 cycles
 SCF Done:  E(RB3LYP) =  -554.945072807     A.U. after   12 cycles
 SCF Done:  E(RB3LYP) =  -554.945086049     A.U. after   12 cycles
 SCF Done:  E(RB3LYP) =  -554.945113575     A.U. after   11 cycles
 SCF Done:  E(RB3LYP) =  -554.945116752     A.U. after   11 cycles
 SCF Done:  E(RB3LYP) =  -554.945117271     A.U. after    9 cycles
 SCF Done:  E(RB3LYP) =  -554.945117383     A.U. after    9 cycles
 SCF Done:  E(RB3LYP) =  -554.945117374     A.U. after    8 cycles
 SCF Done:  E(RB3LYP) =  -554.945117335     A.U. after    8 cycles
 Optimization completed.
    -- Stationary point found.
 Normal termination of Gaussian 09 at Tue Apr 23 12:16:50 2024.

 ----------------------------------------------------------------------
 #N Geom=AllCheck Guess=TCheck SCRF=Check GenChk RB3LYP/6-311+G(d,p) Fr
 eq
 ----------------------------------------------------------------------

 Structure from the checkpoint file:  "37.chk"
 -------------------
 Title Card Required
 -------------------
 Charge =  0 Multiplicity = 1

                         Standard orientation:
 ---------------------------------------------------------------------
 Center     Atomic      Atomic             Coordinates (Angstroms)
 Number     Number       Type             X           Y           Z
 ---------------------------------------------------------------------
      1          6           0        0.694116   -0.364147    0.104079
      2          6           0        1.168066    0.953384    0.237050
      3          6           0        2.518465    1.155218   -0.058875
      4          6           0        3.311422    0.093237   -0.477185
      5          6           0        2.728203   -1.166783   -0.576998
      6          7           0        1.449111   -1.396421   -0.281812
      7          1           0        2.944124    2.148315    0.042398
      8          1           0        4.359242    0.235257   -0.714268
      9          1           0        3.308030   -2.026693   -0.899097
     10          6           0        0.299614    2.101694    0.688509
     11          1           0       -0.395670    2.401448   -0.099163
     12          1           0       -0.298649    1.837251    1.563866
     13          1           0        0.915207    2.964432    0.950276
     14          6           0       -0.730800   -0.743263    0.436474
     15          8           0       -1.041624   -1.604516    1.218230
     16          8           0       -1.615558   -0.002158   -0.262123
     17          6           0       -3.019634   -0.298991   -0.040935
     18          1           0       -3.187661   -1.354556   -0.264272
     19          1           0       -3.245846   -0.141787    1.016334
     20          6           0       -3.829397    0.611200   -0.940885
     21          1           0       -4.894969    0.409071   -0.802978
     22          1           0       -3.648251    1.662388   -0.705172
     23          1           0       -3.582210    0.443912   -1.991501
 ---------------------------------------------------------------------

 SCF Done:  E(RB3LYP) =  -554.945117335     A.U. after    1 cycles

 The electronic state is 1-A.
 Alpha  occ. eigenvalues --  -19.17356 -19.11635 -14.32146 -10.30596 -10.23567
 Alpha  occ. eigenvalues --  -10.22841 -10.21494 -10.20829 -10.20083 -10.19431
 Alpha  occ. eigenvalues --  -10.18186 -10.17617  -1.11412  -1.02775  -0.95920
 Alpha  occ. eigenvalues --   -0.83064  -0.80341  -0.77869  -0.71907  -0.68008
 Alpha  occ. eigenvalues --   -0.63530  -0.62642  -0.58205  -0.54482  -0.51615
 Alpha  occ. eigenvalues --   -0.49625  -0.49227  -0.47653  -0.44630  -0.44272
 Alpha  occ. eigenvalues --   -0.42817  -0.41957  -0.41206  -0.41067  -0.40647
 Alpha  occ. eigenvalues --   -0.39747  -0.37956  -0.37034  -0.35975  -0.31368
 Alpha  occ. eigenvalues --   -0.30302  -0.28889  -0.26952  -0.26494
 Alpha virt. eigenvalues --   -0.05250  -0.03674  -0.00386   0.00435   0.01298
 Alpha virt. eigenvalues --    0.01637   0.02730   0.02976   0.03495   0.04551
 Alpha virt. eigenvalues --    0.04705   0.05593   0.06051   0.06520   0.07193

 Mulliken charges:
               1
     1  C   -0.936224
     2  C    1.854399
     3  C   -0.767711
     4  C    0.050059
     5  C    0.035180
     6  N    0.051947
     7  H    0.127500
     8  H    0.132333
     9  H    0.131901
    10  C   -0.429921
    11  H    0.185321
    12  H    0.160245
    13  H    0.143144
    14  C   -0.663825
    15  O   -0.222492
    16  O   -0.043352
    17  C   -0.031950
    18  H    0.168704
    19  H    0.165879
    20  C   -0.551265
    21  H    0.148140
    22  H    0.141123
    23  H    0.150864
 Sum of Mulliken charges =   0.00000

 Dipole moment (field-independent basis, Debye):
    X=              0.1501    Y=              3.7722    Z=             -1.1052  Tot=              3.9337
 Quadrupole moment (field-independent basis, Debye-Ang):
   XX=            -54.7022   YY=            -74.5869   ZZ=            -74.8334
   XY=              0.5869   XZ=             -0.0107   YZ=              4.9783

  Exact polarizability: 150.872  -2.810 119.474  -8.930   2.339  84.715
 Approx polarizability: 201.178   0.609 192.353 -18.382   1.124 131.234

 ESP charges:
               1
     1  C    0.232131
     2  C   -0.007096
     3  C    0.071224
     4  C   -0.329165
     5  C    0.389647
     6  N   -0.585702
     7  H    0.073678
     8  H    0.128853
     9  H    0.014015
    10  C   -0.328634
    11  H    0.104244
    12  H    0.102278
    13  H    0.099853
    14  C    0.779588
    15  O   -0.581762
    16  O   -0.513637
    17  C    0.446642
    18  H   -0.002552
    19  H   -0.017121
    20  C   -0.338545
    21  H    0.066462
    22  H    0.102903
    23  H    0.092696
 Sum of ESP charges =   0.00000

 Summary of Natural Population Analysis:

                                       Natural Population
                Natural  -----------------------------------------------
    Atom  No    Charge         Core      Valence    Rydberg      Total
 -----------------------------------------------------------------------
      C    1    0.11979      1.99886     3.85404    0.02730     5.88021
      C    2   -0.03799      1.99898     4.02412    0.01490     6.03799
      C    3   -0.16769      1.99906     4.15128    0.01736     6.16769
      C    4   -0.22811      1.99915     4.21226    0.01671     6.22811
      C    5    0.04878      1.99921     3.92436    0.02765     5.95122
      N    6   -0.42339      1.99936     5.40385    0.02017     7.42339
      H    7    0.20794      0.00000     0.79038    0.00168     0.79206
      H    8    0.21377      0.00000     0.78458    0.00164     0.78623
      H    9    0.19111      0.00000     0.80744    0.00145     0.80889
      C   10   -0.59459      1.99930     4.58539    0.00990     6.59459
      H   11    0.22694      0.00000     0.77125    0.00181     0.77306
      H   12    0.21627      0.00000     0.78235    0.00139     0.78373
      H   13    0.20577      0.00000     0.79270    0.00153     0.79423
      C   14    0.79563      1.99933     3.15454    0.05050     5.20437
      O   15   -0.56857      1.99974     6.55620    0.01263     8.56857
      O   16   -0.56693      1.99972     6.54867    0.01855     8.56693
      C   17   -0.04055      1.99922     4.02210    0.01924     6.04055
      H   18    0.18986      0.00000     0.80807    0.00208     0.81014
      H   19    0.18489      0.00000     0.81292    0.00219     0.81511
      C   20   -0.59280      1.99936     4.58474    0.00870     6.59280
      H   21    0.20880      0.00000     0.79001    0.00119     0.79120
      H   22    0.20340      0.00000     0.79495    0.00164     0.79660
      H   23    0.20769      0.00000     0.79067    0.00164     0.79231
 =======================================================================
   * Total *    0.00000     23.99129    63.74687    0.26184    88.00000

                      1                      2                      3
                      A                      A                      A
 Frequencies --     21.9911                67.9676                80.7455
 Red. masses --      4.2798                 3.3653                 4.2564
 Frc consts  --      0.0012                 0.0092                 0.0164
 IR Inten    --      0.5357                 0.6392                 2.5626

                      4                      5                      6
                      A                      A                      A
 Frequencies --    100.3607               116.0121               161.3315
 Red. masses --      2.2341                 1.0429                 3.2883
 Frc consts  --      0.0133                 0.0083                 0.0504
 IR Inten    --      1.4294                 0.5892                 1.2293

                      7                      8                      9
                      A                      A                      A
 Frequencies --    219.5596               245.9083               275.8858
 Red. masses --      2.1143                 3.8669                 1.6121
 Frc consts  --      0.0601                 0.1378                 0.0723
 IR Inten    --      1.1148                 1.9143                 1.2347

                     10                     11                     12
                      A                      A                      A
 Frequencies --    314.2846               345.2163               392.6133
 Red. masses --      5.1417                 4.4930                 3.4390
 Frc consts  --      0.2992                 0.3155                 0.3123
 IR Inten    --      3.7899                 7.7298                 3.6911

                     13                     14                     15
                      A                      A                      A
 Frequencies --    417.1971               470.6227               556.8225
 Red. masses --      3.9719                 3.5822                 5.1793
 Frc consts  --      0.4073                 0.4675                 0.9461
 IR Inten    --      1.0245                 0.9510                 0.8472

                     16                     17                     18
                      A                      A                      A
 Frequencies --    574.6055               672.0575               744.4608
 Red. masses --      3.8449                 7.1424                 5.0510
 Frc consts  --      0.7480                 1.9007                 1.6493
 IR Inten    --      0.3552                 8.9333                22.0327

                     19                     20                     21
                      A                      A                      A
 Frequencies --    798.8473               811.0577               813.9062
 Red. masses --      1.8158                 1.3802                 3.2533
 Frc consts  --      0.6827                 0.5349                 1.2698
 IR Inten    --     17.8053                 2.8290                12.9341

                     22                     23                     24
                      A                      A                      A
 Frequencies --    824.0866               874.7181               890.9675
 Red. masses --      2.5024                 3.8973                 3.6928
 Frc consts  --      1.0013                 1.7569                 1.7271
 IR Inten    --      9.0840                12.1660                 4.0658

                     25                     26                     27
                      A                      A                      A
 Frequencies --    956.1649               998.6740              1012.3645
 Red. masses --      1.3318                 1.3635                 1.5428
 Frc consts  --      0.7174                 0.8012                 0.9316
 IR Inten    --      0.0496                 0.2119                 6.3459

                     28                     29                     30
                      A                      A                      A
 Frequencies --   1033.7704              1064.3235              1082.0108
 Red. masses --      3.0062                 1.5423                 2.5885
 Frc consts  --      1.8929                 1.0294                 1.7855
 IR Inten    --     35.7716                 2.0373                17.3073

                     31                     32                     33
                      A                      A                      A
 Frequencies --   1118.3987              1136.9863              1154.3740
 Red. masses --      3.4862                 2.1855                 1.8380
 Frc consts  --      2.5692                 1.6646                 1.4430
 IR Inten    --    159.8778                 5.9389               128.5863

                     34                     35                     36
                      A                      A                      A
 Frequencies --   1175.5269              1211.2548              1263.2721
 Red. masses --      1.5528                 2.4530                 3.2162
 Frc consts  --      1.2643                 2.1204                 3.0240
 IR Inten    --      4.4102               114.1575                77.9909

                     37                     38                     39
                      A                      A                      A
 Frequencies --   1293.7009              1297.8933              1314.0493
 Red. masses --      3.4794                 1.1147                 2.3346
 Frc consts  --      3.4310                 1.1064                 2.3751
 IR Inten    --     14.6320                 1.5514               152.8528

                     40                     41                     42
                      A                      A                      A
 Frequencies --   1396.0986              1419.3462              1424.7977
 Red. masses --      1.3027                 1.2292                 1.3711
 Frc consts  --      1.4960                 1.4589                 1.6399
 IR Inten    --      2.2977                 1.5796                10.5502

                     43                     44                     45
                      A                      A                      A
 Frequencies --   1454.2286              1477.6203              1486.6786
 Red. masses --      2.2750                 2.0923                 1.0909
 Frc consts  --      2.8347                 2.6916                 1.4206
 IR Inten    --      5.3250                23.7609                13.8024

                     46                     47                     48
                      A                      A                      A
 Frequencies --   1487.7970              1498.6114              1500.8711
 Red. masses --      1.0433                 1.0639                 1.1804
 Frc consts  --      1.3607                 1.4077                 1.5666
 IR Inten    --      5.3451                 0.9027                16.1350

                     49                     50                     51
                      A                      A                      A
 Frequencies --   1518.7895              1602.8933              1627.3718
 Red. masses --      1.0851                 5.4837                 6.2223
 Frc consts  --      1.4748                 8.3010                 9.7090
 IR Inten    --      6.2995                19.3113                 0.7500

                     52                     53                     54
                      A                      A                      A
 Frequencies --   1793.7835              3036.6913              3037.3065
 Red. masses --     12.5935                 1.0351                 1.0354
 Frc consts  --     23.8747                 5.6236                 5.6276
 IR Inten    --    272.8805                15.1013                20.3457

                     55                     56                     57
                      A                      A                      A
 Frequencies --   3053.8583              3088.9976              3094.7666
 Red. masses --      1.0585                 1.1065                 1.1006
 Frc consts  --      5.8164                 6.2207                 6.2104
 IR Inten    --     15.8958                 0.9712                 9.4129

                     58                     59                     60
                      A                      A                      A
 Frequencies --   3103.1285              3107.0976              3115.8067
 Red. masses --      1.1005                 1.1025                 1.1057
 Frc consts  --      6.2434                 6.2712                 6.3246
 IR Inten    --     28.4248                17.4821                35.4167

                     61                     62                     63
                      A                      A                      A
 Frequencies --   3154.4435              3163.7755              3190.3174
 Red. masses --      1.0887                 1.0902                 1.0964
 Frc consts  --      6.3824                 6.4293                 6.5750
 IR Inten    --     11.3181                14.5762                17.1685

 - Thermochemistry -
 -------------------
 Temperature   298.150 Kelvin.  Pressure   1.00000 Atm.
 Atom     1 has atomic number  6 and mass  12.00000

 Molecular mass:   165.07898 amu.
 Principal axes and moments of inertia in atomic units:
                           1         2         3
     Eigenvalues --   975.472433122.927023649.22794
           X            0.99995  -0.00592   0.00746
           Y            0.00568   0.99944   0.03295
           Z           -0.00765  -0.03290   0.99943
 This molecule is an asymmetric top.
 Rotational symmetry number  1.
 Warning -- assumption of classical behavior for rotation
           may cause significant error
 Rotational temperatures (Kelvin)      0.08879     0.02773     0.02373
 Rotational constants (GHZ):           1.85012     0.57790     0.49455
 Zero-point vibrational energy     488908.2 (Joules/Mol)
                                  116.85186 (Kcal/Mol)
 Warning -- explicit consideration of  16 degrees of freedom as
           vibrations may cause significant error
 Vibrational temperatures:     31.64    97.79   116.17   144.40   166.92
          (Kelvin)            232.12   315.90   353.81   396.94   452.18
                              496.69   564.88   600.25   677.12   801.14
                              826.73   966.94  1071.11  1149.36  1166.93
                             1171.03  1185.68  1258.52  1281.90  1375.71
                             1436.87  1456.56  1487.36  1531.32  1556.77
                             1609.12  1635.87  1660.88  1691.32  1742.72
                             1817.56  1861.34  1867.38  1890.62  2008.67
                             2042.12  2049.96  2092.31  2125.96  2139.00
                             2140.61  2156.16  2159.42  2185.20  2306.20
                             2341.42  2580.85  4369.12  4370.00  4393.82
                             4444.37  4452.67  4464.70  4470.41  4482.95
                             4538.53  4551.96  4590.15

 Zero-point correction=                           0.186215 (Hartree/Particle)
 Thermal correction to Energy=                    0.198084
 Thermal correction to Enthalpy=                  0.199029
 Thermal correction to Gibbs Free Energy=         0.146832
 Sum of electronic and zero-point Energies=           -554.758902
 Sum of electronic and thermal Energies=              -554.747033
 Sum of electronic and thermal Enthalpies=            -554.746089
 Sum of electronic and thermal Free Energies=         -554.798286

                     E (Thermal)             CV                S
                      KCal/Mol        Cal/Mol-Kelvin    Cal/Mol-Kelvin
 Total                  124.300             42.707            109.858
 Electronic               0.000              0.000              0.000
 Translational            0.889              2.981             41.212
 Rotational               0.889              2.981             30.787
 Vibrational            122.522             36.745             37.859
 Vibration     1          0.593              1.985              6.446
 Vibration     2          0.598              1.969              4.211
 Vibration     3          0.600              1.962              3.873
 Vibration     4          0.604              1.949              3.447
 Vibration     5          0.608              1.936              3.166
 Vibration     6          0.622              1.890              2.534
 Vibration     7          0.647              1.811              1.963
 Vibration     8          0.660              1.770              1.760
 Vibration     9          0.678              1.718              1.559
 Vibration    10          0.702              1.646              1.340
 Vibration    11          0.724              1.585              1.188
 Vibration    12          0.760              1.486              0.990
 Vibration    13          0.780              1.433              0.902
 Vibration    14          0.828              1.315              0.736
 Vibration    15          0.912              1.125              0.530
 Vibration    16          0.931              1.086              0.495

 Optimization completed.
    -- Stationary point found.
 Normal termination of Gaussian 09 at Tue Apr 23 12:20:31 2024.
