 Gaussian 09, Revision D.01,
 Gaussian 09:  ES64L-G09RevD.01 24-Apr-2013

 ----------------------------------------------------------------------
 # opt freq=noraman b3lyp/6-311+g(d,p) pop=(npa,hirshfeld,chelpg,mbs) g
 eom=connectivity
 ----------------------------------------------------------------------

 -------------------
 Title Card Required
 -------------------
 Symbolic Z-matrix:
 Charge =  0 Multiplicity = 1

 SCF Done:  E(RB3LYP) =  -521.189390234     A.U. after   14 cycles
 SCF Done:  E(RB3LYP) =  -521.202895393     A.U. after   13 cycles
 SCF Done:  E(RB3LYP) =  -521.207051446     A.U. after   12 cycles
 SCF Done:  E(RB3LYP) =  -521.208067276     A.U. after   12 cycles
 SCF Done:  E(RB3LYP) =  -521.208157420     A.U. after   11 cycles
 SCF Done:  E(RB3LYP) =  -521.208169058     A.U. after   10 cycles
 SCF Done:  E(RB3LYP) =  -521.208171889     A.U. after    9 cycles
 SCF Done:  E(RB3LYP) =  -521.208172825     A.U. after    9 cycles
 SCF Done:  E(RB3LYP) =  -521.208173041     A.U. after    8 cycles
 Optimization completed.
    -- Stationary point found.
 Normal termination of Gaussian 09 at Tue Apr 23 12:17:09 2024.

 ----------------------------------------------------------------------
 #N Geom=AllCheck Guess=TCheck SCRF=Check GenChk RB3LYP/6-311+G(d,p) Fr
 eq
 ----------------------------------------------------------------------

 Structure from the checkpoint file:  "41.chk"
 -------------------
 Title Card Required
 -------------------
 Charge =  0 Multiplicity = 1

                         Standard orientation:
 ---------------------------------------------------------------------
 Center     Atomic      Atomic             Coordinates (Angstroms)
 Number     Number       Type             X           Y           Z
 ---------------------------------------------------------------------
      1          6           0       -1.196788    2.210065    0.013369
      2          6           0       -1.221243    0.816732    0.025626
      3          6           0       -2.552143    0.089158    0.058583
      4          6           0       -0.000198    2.919835    0.007250
      5          6           0        0.000002    0.099560    0.020951
      6          6           0        1.221120    0.816876    0.025639
      7          6           0        1.196467    2.210240    0.013385
      8          6           0        2.552124    0.089495    0.058624
      9          1           0        2.948032    0.105879    1.082529
     10          6           0        2.423491   -1.361172   -0.405331
     11          6           0        1.230546   -2.014099    0.284010
     12          6           0       -1.230261   -2.014251    0.284067
     13          6           0       -2.423293   -1.361514   -0.405305
     14          1           0       -3.334902   -1.923024   -0.181215
     15          1           0       -1.113806   -3.048935   -0.051194
     16          1           0       -0.000309    4.003397   -0.005328
     17          1           0        2.141507    2.745576    0.008015
     18          1           0        2.270165   -1.400313   -1.488634
     19          1           0        1.114260   -3.048786   -0.051301
     20          1           0       -2.948067    0.105538    1.082478
     21          1           0       -2.141873    2.745320    0.008016
     22          1           0        3.279884    0.626041   -0.557655
     23          1           0        3.335175   -1.922571   -0.181272
     24          1           0        1.401990   -2.046073    1.375289
     25          1           0       -1.401676   -2.046189    1.375351
     26          1           0       -2.269967   -1.400694   -1.488606
     27          1           0       -3.279944    0.625593   -0.557744
     28          7           0        0.000085   -1.303759   -0.036277
 ---------------------------------------------------------------------

 SCF Done:  E(RB3LYP) =  -521.208173041     A.U. after    1 cycles

 The electronic state is 1-A.
 Alpha  occ. eigenvalues --  -14.32101 -10.20470 -10.20199 -10.20198 -10.17092
 Alpha  occ. eigenvalues --  -10.17091 -10.17069 -10.17069 -10.16856 -10.16855
 Alpha  occ. eigenvalues --  -10.15988 -10.15985 -10.15489  -0.95129  -0.84341
 Alpha  occ. eigenvalues --   -0.82086  -0.77286  -0.74717  -0.74668  -0.67710
 Alpha  occ. eigenvalues --   -0.64157  -0.63530  -0.61345  -0.55579  -0.54810
 Alpha  occ. eigenvalues --   -0.50576  -0.49403  -0.48431  -0.46690  -0.45187
 Alpha  occ. eigenvalues --   -0.43597  -0.42694  -0.41685  -0.40702  -0.40565
 Alpha  occ. eigenvalues --   -0.39867  -0.37961  -0.37437  -0.36387  -0.34679
 Alpha  occ. eigenvalues --   -0.33573  -0.33191  -0.32442  -0.31255  -0.28321
 Alpha  occ. eigenvalues --   -0.23232  -0.18815
 Alpha virt. eigenvalues --   -0.00836  -0.00591   0.01140   0.01220   0.01682
 Alpha virt. eigenvalues --    0.02267   0.02907   0.03122   0.04432   0.04464
 Alpha virt. eigenvalues --    0.05400   0.05558   0.05930   0.07130   0.07375

 Mulliken charges:
               1
     1  C    0.039347
     2  C    0.204221
     3  C   -0.290081
     4  C   -0.532257
     5  C   -0.537576
     6  C    0.204232
     7  C    0.039314
     8  C   -0.290083
     9  H    0.169277
    10  C   -0.445136
    11  C   -0.150576
    12  C   -0.150584
    13  C   -0.445123
    14  H    0.151816
    15  H    0.137121
    16  H    0.114677
    17  H    0.109761
    18  H    0.158607
    19  H    0.137123
    20  H    0.169280
    21  H    0.109761
    22  H    0.152456
    23  H    0.151816
    24  H    0.136592
    25  H    0.136591
    26  H    0.158606
    27  H    0.152461
    28  N    0.208360
 Sum of Mulliken charges =   0.00000

 Dipole moment (field-independent basis, Debye):
    X=              0.0001    Y=             -1.8348    Z=              0.2705  Tot=              1.8547
 Quadrupole moment (field-independent basis, Debye-Ang):
   XX=            -72.7944   YY=            -76.2346   ZZ=            -82.5828
   XY=             -0.0002   XZ=              0.0000   YZ=             -0.5807

  Exact polarizability: 163.880  -0.001 173.114   0.000  -3.085  97.915
 Approx polarizability: 239.355  -0.002 260.087   0.001  -3.893 157.900

 ESP charges:
               1
     1  C   -0.169000
     2  C   -0.049309
     3  C    0.145973
     4  C   -0.122807
     5  C    0.164900
     6  C   -0.049340
     7  C   -0.168978
     8  C    0.145967
     9  H   -0.027409
    10  C   -0.007144
    11  C    0.155074
    12  C    0.154681
    13  C   -0.007121
    14  H   -0.005991
    15  H    0.016479
    16  H    0.092759
    17  H    0.100943
    18  H   -0.007588
    19  H    0.016365
    20  H   -0.027397
    21  H    0.100965
    22  H   -0.016806
    23  H   -0.006003
    24  H   -0.010957
    25  H   -0.010853
    26  H   -0.007556
    27  H   -0.016824
    28  N   -0.383023
 Sum of ESP charges =   0.00000

 Summary of Natural Population Analysis:

                                       Natural Population
                Natural  -----------------------------------------------
    Atom  No    Charge         Core      Valence    Rydberg      Total
 -----------------------------------------------------------------------
      C    1   -0.19187      1.99907     4.17533    0.01748     6.19187
      C    2   -0.07083      1.99899     4.05525    0.01659     6.07083
      C    3   -0.39016      1.99923     4.37621    0.01472     6.39016
      C    4   -0.23183      1.99915     4.21326    0.01942     6.23183
      C    5    0.18669      1.99884     3.79699    0.01747     5.81331
      C    6   -0.07085      1.99899     4.05527    0.01659     6.07085
      C    7   -0.19187      1.99907     4.17532    0.01748     6.19187
      C    8   -0.39016      1.99923     4.37621    0.01472     6.39016
      H    9    0.20324      0.00000     0.79486    0.00190     0.79676
      C   10   -0.38569      1.99929     4.37282    0.01359     6.38569
      C   11   -0.15665      1.99928     4.14041    0.01697     6.15665
      C   12   -0.15665      1.99928     4.14041    0.01697     6.15665
      C   13   -0.38570      1.99929     4.37282    0.01359     6.38570
      H   14    0.20255      0.00000     0.79566    0.00179     0.79745
      H   15    0.19396      0.00000     0.80409    0.00196     0.80604
      H   16    0.20277      0.00000     0.79555    0.00168     0.79723
      H   17    0.19897      0.00000     0.79934    0.00170     0.80103
      H   18    0.20089      0.00000     0.79683    0.00228     0.79911
      H   19    0.19395      0.00000     0.80409    0.00196     0.80605
      H   20    0.20324      0.00000     0.79486    0.00190     0.79676
      H   21    0.19897      0.00000     0.79933    0.00170     0.80103
      H   22    0.20918      0.00000     0.78913    0.00168     0.79082
      H   23    0.20255      0.00000     0.79566    0.00179     0.79745
      H   24    0.16961      0.00000     0.82739    0.00300     0.83039
      H   25    0.16961      0.00000     0.82739    0.00300     0.83039
      H   26    0.20089      0.00000     0.79683    0.00228     0.79911
      H   27    0.20918      0.00000     0.78913    0.00168     0.79082
      N   28   -0.52398      1.99929     5.49540    0.02929     7.52398
 =======================================================================
   * Total *    0.00000     25.98900    67.75584    0.25516    94.00000

                      1                      2                      3
                      A                      A                      A
 Frequencies --     88.7963                92.5041               143.3550
 Red. masses --      2.4130                 2.4638                 3.3578
 Frc consts  --      0.0112                 0.0124                 0.0407
 IR Inten    --      0.0468                 0.6367                 7.2791

                      4                      5                      6
                      A                      A                      A
 Frequencies --    209.6056               301.3801               304.0878
 Red. masses --      2.8944                 1.8574                 2.8461
 Frc consts  --      0.0749                 0.0994                 0.1551
 IR Inten    --      0.0657                 1.0209                 5.3673

                      7                      8                      9
                      A                      A                      A
 Frequencies --    317.6032               387.2063               420.5915
 Red. masses --      2.0786                 4.0127                 3.5317
 Frc consts  --      0.1235                 0.3545                 0.3681
 IR Inten    --      5.9912                 0.2094                 0.6513

                     10                     11                     12
                      A                      A                      A
 Frequencies --    421.2248               454.7607               505.5977
 Red. masses --      3.3891                 4.3331                 3.6225
 Frc consts  --      0.3543                 0.5280                 0.5456
 IR Inten    --      1.1953                 5.6075                 0.2089

                     13                     14                     15
                      A                      A                      A
 Frequencies --    537.1683               547.5144               559.2766
 Red. masses --      3.4484                 2.5202                 3.6706
 Frc consts  --      0.5863                 0.4451                 0.6765
 IR Inten    --      0.0870                 0.3664                 2.0975

                     16                     17                     18
                      A                      A                      A
 Frequencies --    609.2869               626.3643               747.0129
 Red. masses --      3.2544                 2.4482                 3.6777
 Frc consts  --      0.7118                 0.5659                 1.2092
 IR Inten    --      1.2183                 1.5013                21.9446

                     19                     20                     21
                      A                      A                      A
 Frequencies --    768.2477               795.0555               849.4796
 Red. masses --      1.3968                 4.0203                 1.7687
 Frc consts  --      0.4857                 1.4973                 0.7520
 IR Inten    --     32.0249                 8.8895                 1.5879

                     22                     23                     24
                      A                      A                      A
 Frequencies --    862.5145               891.8651               894.7490
 Red. masses --      1.9499                 2.3243                 1.5487
 Frc consts  --      0.8547                 1.0893                 0.7305
 IR Inten    --      1.9745                 0.2551                 5.0672

                     25                     26                     27
                      A                      A                      A
 Frequencies --    905.7631               921.8172               943.3214
 Red. masses --      1.9124                 1.3969                 2.5487
 Frc consts  --      0.9244                 0.6993                 1.3362
 IR Inten    --      0.5636                 0.1024                 3.1227

                     28                     29                     30
                      A                      A                      A
 Frequencies --    964.7482              1020.4323              1050.4150
 Red. masses --      1.3026                 2.3840                 2.0548
 Frc consts  --      0.7143                 1.4626                 1.3358
 IR Inten    --      1.0394                 0.4223                 0.8975

                     31                     32                     33
                      A                      A                      A
 Frequencies --   1057.6721              1067.6659              1092.9701
 Red. masses --      2.3334                 2.9707                 1.8264
 Frc consts  --      1.5380                 1.9952                 1.2855
 IR Inten    --      7.4565                 2.3029                 4.7343

                     34                     35                     36
                      A                      A                      A
 Frequencies --   1100.2353              1130.6237              1171.2222
 Red. masses --      1.7420                 1.8743                 1.5602
 Frc consts  --      1.2424                 1.4116                 1.2610
 IR Inten    --      3.1752                19.3255                16.4626

                     37                     38                     39
                      A                      A                      A
 Frequencies --   1182.0652              1208.7344              1215.6477
 Red. masses --      1.2262                 1.3454                 1.3386
 Frc consts  --      1.0095                 1.1581                 1.1655
 IR Inten    --      1.8098                28.7283                 1.5787

                     40                     41                     42
                      A                      A                      A
 Frequencies --   1222.5294              1230.2316              1259.3723
 Red. masses --      1.6422                 2.0619                 2.4275
 Frc consts  --      1.4461                 1.8387                 2.2684
 IR Inten    --     19.1859                31.1461                 7.1958

                     43                     44                     45
                      A                      A                      A
 Frequencies --   1267.3627              1292.9533              1307.2203
 Red. masses --      1.4109                 1.4280                 1.3619
 Frc consts  --      1.3352                 1.4066                 1.3712
 IR Inten    --      4.9652                 7.1059                 0.3470

                     46                     47                     48
                      A                      A                      A
 Frequencies --   1332.5436              1335.3637              1358.8421
 Red. masses --      3.5142                 1.9640                 1.6511
 Frc consts  --      3.6765                 2.0635                 1.7962
 IR Inten    --      7.0941               132.9630                13.6670

                     49                     50                     51
                      A                      A                      A
 Frequencies --   1366.4367              1374.0483              1378.9612
 Red. masses --      1.4405                 1.4480                 1.4454
 Frc consts  --      1.5847                 1.6107                 1.6194
 IR Inten    --      1.0176                 0.1629                 7.0797

                     52                     53                     54
                      A                      A                      A
 Frequencies --   1386.7966              1433.5763              1473.7131
 Red. masses --      1.5285                 1.6373                 1.5141
 Frc consts  --      1.7320                 1.9826                 1.9374
 IR Inten    --     24.8924                 3.0474                50.7938

                     55                     56                     57
                      A                      A                      A
 Frequencies --   1481.6593              1488.6040              1491.1459
 Red. masses --      1.0968                 1.1755                 1.0952
 Frc consts  --      1.4187                 1.5347                 1.4348
 IR Inten    --      1.7265                33.7723                 7.3997

                     58                     59                     60
                      A                      A                      A
 Frequencies --   1500.3820              1504.1119              1505.4841
 Red. masses --      1.2789                 2.4478                 1.1360
 Frc consts  --      1.6962                 3.2628                 1.5170
 IR Inten    --     37.9572                 0.3661                 0.4152

                     61                     62                     63
                      A                      A                      A
 Frequencies --   1531.6829              1619.4339              1635.5900
 Red. masses --      1.2913                 6.8762                 5.6785
 Frc consts  --      1.7850                10.6248                 8.9502
 IR Inten    --     47.7938                 0.0006                35.2130

                     64                     65                     66
                      A                      A                      A
 Frequencies --   2912.4808              2916.9594              2996.5602
 Red. masses --      1.0732                 1.0749                 1.0704
 Frc consts  --      5.3637                 5.3888                 5.6629
 IR Inten    --     24.1015               179.2921                38.2778

                     67                     68                     69
                      A                      A                      A
 Frequencies --   2996.8587              3028.0298              3028.9178
 Red. masses --      1.0704                 1.0630                 1.0626
 Frc consts  --      5.6643                 5.7427                 5.7436
 IR Inten    --     21.7221                 9.8783                25.0585

                     70                     71                     72
                      A                      A                      A
 Frequencies --   3048.4617              3050.5448              3052.7529
 Red. masses --      1.0891                 1.0891                 1.0868
 Frc consts  --      5.9630                 5.9715                 5.9674
 IR Inten    --     11.4084                37.6374                50.9439

                     73                     74                     75
                      A                      A                      A
 Frequencies --   3055.9253              3072.3240              3072.6592
 Red. masses --      1.0847                 1.1052                 1.1050
 Frc consts  --      5.9684                 6.1462                 6.1469
 IR Inten    --     89.9899                32.0695                56.0021

                     76                     77                     78
                      A                      A                      A
 Frequencies --   3147.0570              3151.3597              3184.3186
 Red. masses --      1.0864                 1.0902                 1.0953
 Frc consts  --      6.3392                 6.3787                 6.5437
 IR Inten    --      3.0730                28.4241                23.2397

 - Thermochemistry -
 -------------------
 Temperature   298.150 Kelvin.  Pressure   1.00000 Atm.
 Atom     1 has atomic number  6 and mass  12.00000

 Molecular mass:   173.12045 amu.
 Principal axes and moments of inertia in atomic units:
                           1         2         3
     Eigenvalues --  1747.662871817.024493440.82046
           X            1.00000   0.00003   0.00000
           Y           -0.00003   1.00000  -0.00198
           Z            0.00000   0.00198   1.00000
 This molecule is an asymmetric top.
 Rotational symmetry number  1.
 Warning -- assumption of classical behavior for rotation
           may cause significant error
 Rotational temperatures (Kelvin)      0.04956     0.04767     0.02517
 Rotational constants (GHZ):           1.03266     0.99324     0.52451
 Zero-point vibrational energy     645157.0 (Joules/Mol)
                                  154.19623 (Kcal/Mol)
 Warning -- explicit consideration of  16 degrees of freedom as
           vibrations may cause significant error
 Vibrational temperatures:    127.76   133.09   206.26   301.58   433.62
          (Kelvin)            437.51   456.96   557.10   605.14   606.05
                              654.30   727.44   772.86   787.75   804.67
                              876.63   901.20  1074.78  1105.34  1143.91
                             1222.21  1240.96  1283.19  1287.34  1303.19
                             1326.29  1357.23  1388.06  1468.17  1511.31
                             1521.75  1536.13  1572.54  1582.99  1626.71
                             1685.13  1700.73  1739.10  1749.04  1758.94
                             1770.03  1811.95  1823.45  1860.27  1880.80
                             1917.23  1921.29  1955.07  1966.00  1976.95
                             1984.02  1995.29  2062.59  2120.34  2131.77
                             2141.77  2145.42  2158.71  2164.08  2166.05
                             2203.75  2330.00  2353.25  4190.41  4196.85
                             4311.38  4311.81  4356.65  4357.93  4386.05
                             4389.05  4392.23  4396.79  4420.38  4420.87
                             4527.91  4534.10  4581.52

 Zero-point correction=                           0.245727 (Hartree/Particle)
 Thermal correction to Energy=                    0.255900
 Thermal correction to Enthalpy=                  0.256844
 Thermal correction to Gibbs Free Energy=         0.210289
 Sum of electronic and zero-point Energies=           -520.962446
 Sum of electronic and thermal Energies=              -520.952273
 Sum of electronic and thermal Enthalpies=            -520.951329
 Sum of electronic and thermal Free Energies=         -520.997884

                     E (Thermal)             CV                S
                      KCal/Mol        Cal/Mol-Kelvin    Cal/Mol-Kelvin
 Total                  160.580             42.630             97.984
 Electronic               0.000              0.000              0.000
 Translational            0.889              2.981             41.354
 Rotational               0.889              2.981             30.770
 Vibrational            158.802             36.668             25.860
 Vibration     1          0.602              1.957              3.686
 Vibration     2          0.602              1.955              3.606
 Vibration     3          0.616              1.910              2.759
 Vibration     4          0.642              1.826              2.047
 Vibration     5          0.693              1.671              1.409
 Vibration     6          0.695              1.666              1.394
 Vibration     7          0.704              1.640              1.322
 Vibration     8          0.756              1.498              1.011
 Vibration     9          0.783              1.425              0.890
 Vibration    10          0.784              1.424              0.888
 Vibration    11          0.813              1.350              0.782
 Vibration    12          0.861              1.238              0.644
 Vibration    13          0.892              1.168              0.571
 Vibration    14          0.903              1.145              0.549
 Vibration    15          0.915              1.119              0.525
 Vibration    16          0.968              1.012              0.434

 Optimization completed.
    -- Stationary point found.
 Normal termination of Gaussian 09 at Tue Apr 23 12:27:29 2024.
