 Gaussian 09, Revision D.01,
 Gaussian 09:  ES64L-G09RevD.01 24-Apr-2013

 ----------------------------------------------------------------------
 # opt freq b3lyp/6-311+g(d,p) geom=connectivity pop=(hirshfeld,chelpg,
 mbs,npa)
 ----------------------------------------------------------------------

 -------------------
 Title Card Required
 -------------------
 Symbolic Z-matrix:
 Charge =  0 Multiplicity = 1

 SCF Done:  E(RB3LYP) =  -480.678213334     A.U. after   14 cycles
 SCF Done:  E(RB3LYP) =  -480.689795582     A.U. after   12 cycles
 SCF Done:  E(RB3LYP) =  -480.690347109     A.U. after   11 cycles
 SCF Done:  E(RB3LYP) =  -480.690411880     A.U. after   10 cycles
 SCF Done:  E(RB3LYP) =  -480.690435747     A.U. after   10 cycles
 SCF Done:  E(RB3LYP) =  -480.690450812     A.U. after   10 cycles
 SCF Done:  E(RB3LYP) =  -480.690452608     A.U. after    9 cycles
 SCF Done:  E(RB3LYP) =  -480.690452651     A.U. after    7 cycles
 Optimization completed.
    -- Stationary point found.
 Normal termination of Gaussian 09 at Mon Jan  9 17:39:38 2023.

 ----------------------------------------------------------------------
 #N Geom=AllCheck Guess=TCheck SCRF=Check GenChk RB3LYP/6-311+G(d,p) Fr
 eq
 ----------------------------------------------------------------------

 Structure from the checkpoint file:  "substitutedquinolines1_Marder.chk"
 -------------------
 Title Card Required
 -------------------
 Charge =  0 Multiplicity = 1

                         Standard orientation:
 ---------------------------------------------------------------------
 Center     Atomic      Atomic             Coordinates (Angstroms)
 Number     Number       Type             X           Y           Z
 ---------------------------------------------------------------------
      1          6           0       -2.102375   -1.303736    0.000004
      2          6           0       -0.773163   -1.648176   -0.000026
      3          6           0        0.230932   -0.646817    0.000002
      4          6           0       -0.174471    0.719621   -0.000001
      5          6           0       -1.556212    1.038769    0.000028
      6          6           0       -2.521224    0.055393    0.000026
      7          1           0       -2.857296   -2.084045    0.000028
      8          1           0       -0.455550   -2.684208   -0.000044
      9          6           0        0.854242    1.694458   -0.000010
     10          1           0       -1.847718    2.085240    0.000065
     11          6           0        2.163773    1.293198   -0.000061
     12          6           0        2.474739   -0.097468   -0.000180
     13          1           0        0.594193    2.748451    0.000030
     14          1           0        2.968318    2.020276   -0.000023
     15          7           0        1.541326   -1.027607   -0.000086
     16          6           0       -3.993001    0.385696    0.000031
     17          1           0       -4.491203   -0.032337   -0.880621
     18          1           0       -4.491234   -0.032345    0.880657
     19          1           0       -4.159750    1.464493    0.000021
     20          6           0        3.914079   -0.545169    0.000141
     21          1           0        4.442654   -0.166042   -0.880512
     22          1           0        4.441775   -0.167495    0.881959
     23          1           0        3.962618   -1.633343   -0.000681
 ---------------------------------------------------------------------

 SCF Done:  E(RB3LYP) =  -480.690452651     A.U. after    1 cycles

 The electronic state is 1-A.
 Alpha  occ. eigenvalues --  -14.30561 -10.21832 -10.20931 -10.19388 -10.19049
 Alpha  occ. eigenvalues --  -10.18999 -10.18309 -10.17960 -10.17945 -10.17559
 Alpha  occ. eigenvalues --  -10.17365 -10.16613  -0.94805  -0.85993  -0.81162
 Alpha  occ. eigenvalues --   -0.78673  -0.75102  -0.72682  -0.68110  -0.64073
 Alpha  occ. eigenvalues --   -0.60803  -0.60010  -0.53281  -0.51290  -0.49500
 Alpha  occ. eigenvalues --   -0.45224  -0.44800  -0.43826  -0.43732  -0.42728
 Alpha  occ. eigenvalues --   -0.41172  -0.40441  -0.39462  -0.39032  -0.38176
 Alpha  occ. eigenvalues --   -0.35934  -0.35014  -0.32973  -0.31072  -0.25841
 Alpha  occ. eigenvalues --   -0.24869  -0.23470
 Alpha virt. eigenvalues --   -0.05687  -0.02665   0.00155   0.00199   0.00902
 Alpha virt. eigenvalues --    0.01705   0.02767   0.03591   0.03997   0.04338
 Alpha virt. eigenvalues --    0.05443   0.05528   0.05645   0.06585   0.07117

 Mulliken charges:
               1
     1  C   -0.380432
     2  C    0.129156
     3  C   -1.243568
     4  C    0.892641
     5  C   -0.078668
     6  C    0.334382
     7  H    0.123275
     8  H    0.128020
     9  C   -0.423659
    10  H    0.109089
    11  C    0.187534
    12  C   -0.113874
    13  H    0.121907
    14  H    0.125861
    15  N    0.073669
    16  C   -0.426596
    17  H    0.157430
    18  H    0.157432
    19  H    0.137200
    20  C   -0.481800
    21  H    0.154664
    22  H    0.154760
    23  H    0.161577
 Sum of Mulliken charges =   0.00000

 Dipole moment (field-independent basis, Debye):
    X=             -0.6982    Y=              1.8345    Z=              0.0003  Tot=              1.9629
 Quadrupole moment (field-independent basis, Debye-Ang):
   XX=            -61.0281   YY=            -68.1082   ZZ=            -75.2501
   XY=              3.7876   XZ=              0.0009   YZ=              0.0000

  Exact polarizability: 212.655   8.262 134.975   0.001   0.000  76.948
 Approx polarizability: 316.655  19.927 235.301  -0.003   0.001 120.572

 ESP charges:
               1
     1  C   -0.213111
     2  C   -0.210074
     3  C    0.496802
     4  C   -0.020197
     5  C   -0.316274
     6  C    0.210985
     7  H    0.132729
     8  H    0.125904
     9  C   -0.005398
    10  H    0.140578
    11  C   -0.379466
    12  C    0.593358
    13  H    0.098248
    14  H    0.139655
    15  N   -0.723510
    16  C   -0.154639
    17  H    0.044282
    18  H    0.044189
    19  H    0.049335
    20  C   -0.215510
    21  H    0.045674
    22  H    0.045871
    23  H    0.070566
 Sum of ESP charges =   0.00000

 Summary of Natural Population Analysis:

                                       Natural Population
                Natural  -----------------------------------------------
    Atom  No    Charge         Core      Valence    Rydberg      Total
 -----------------------------------------------------------------------
      C    1   -0.19345      1.99907     4.17746    0.01693     6.19345
      C    2   -0.17620      1.99908     4.15798    0.01914     6.17620
      C    3    0.16743      1.99894     3.80947    0.02416     5.83257
      C    4   -0.08943      1.99897     4.07532    0.01515     6.08943
      C    5   -0.18488      1.99898     4.17008    0.01582     6.18488
      C    6   -0.03039      1.99905     4.01615    0.01519     6.03039
      H    7    0.20448      0.00000     0.79396    0.00156     0.79552
      H    8    0.21900      0.00000     0.77871    0.00229     0.78100
      C    9   -0.13723      1.99908     4.12111    0.01703     6.13723
      H   10    0.20003      0.00000     0.79711    0.00286     0.79997
      C   11   -0.24300      1.99905     4.22808    0.01587     6.24300
      C   12    0.23241      1.99916     3.74270    0.02573     5.76759
      H   13    0.20483      0.00000     0.79238    0.00279     0.79517
      H   14    0.20959      0.00000     0.78882    0.00159     0.79041
      N   15   -0.46666      1.99931     5.44481    0.02254     7.46666
      C   16   -0.58837      1.99931     4.57932    0.00974     6.58837
      H   17    0.21186      0.00000     0.78673    0.00141     0.78814
      H   18    0.21186      0.00000     0.78673    0.00141     0.78814
      H   19    0.20625      0.00000     0.79256    0.00118     0.79375
      C   20   -0.60489      1.99930     4.59584    0.00976     6.60489
      H   21    0.21100      0.00000     0.78765    0.00135     0.78900
      H   22    0.21103      0.00000     0.78761    0.00135     0.78897
      H   23    0.22474      0.00000     0.77317    0.00209     0.77526
 =======================================================================
   * Total *    0.00000     23.98929    59.78374    0.22698    84.00000

                      1                      2                      3
                      A                      A                      A
 Frequencies --     61.2741                82.7950                93.0467
 Red. masses --      1.1178                 1.4283                 1.5848
 Frc consts  --      0.0025                 0.0058                 0.0081
 IR Inten    --      0.4808                 0.7519                 0.1096

                      4                      5                      6
                      A                      A                      A
 Frequencies --    170.3054               206.6465               227.6662
 Red. masses --      3.8340                 3.5422                 3.0008
 Frc consts  --      0.0655                 0.0891                 0.0916
 IR Inten    --      2.8965                 0.9952                 1.7791

                      7                      8                      9
                      A                      A                      A
 Frequencies --    329.4297               344.1781               409.6360
 Red. masses --      2.8017                 3.4709                 3.5849
 Frc consts  --      0.1791                 0.2422                 0.3544
 IR Inten    --      0.3249                 4.4298                 2.4790

                     10                     11                     12
                      A                      A                      A
 Frequencies --    419.6020               460.4470               495.8699
 Red. masses --      4.8017                 3.2664                 3.2870
 Frc consts  --      0.4981                 0.4080                 0.4762
 IR Inten    --      0.1645                 7.0829                 2.8290

                     13                     14                     15
                      A                      A                      A
 Frequencies --    545.3144               545.9233               599.7434
 Red. masses --      6.6340                 2.7299                 5.1786
 Frc consts  --      1.1623                 0.4794                 1.0975
 IR Inten    --      0.0496                 1.5911                 3.5931

                     16                     17                     18
                      A                      A                      A
 Frequencies --    665.9355               677.1734               762.5720
 Red. masses --      3.2081                 5.8298                 6.0195
 Frc consts  --      0.8382                 1.5751                 2.0624
 IR Inten    --      2.6040                 0.8213                 0.2902

                     19                     20                     21
                      A                      A                      A
 Frequencies --    786.2091               822.9806               840.5126
 Red. masses --      2.3547                 1.4538                 4.1724
 Frc consts  --      0.8575                 0.5801                 1.7367
 IR Inten    --      0.0180                 4.7814                 3.1394

                     22                     23                     24
                      A                      A                      A
 Frequencies --    848.3529               896.3612               929.1700
 Red. masses --      1.6356                 1.4822                 3.1421
 Frc consts  --      0.6935                 0.7017                 1.5983
 IR Inten    --     53.1539                10.3392                 0.3253

                     25                     26                     27
                      A                      A                      A
 Frequencies --    971.8435               988.2810               993.0858
 Red. masses --      2.7613                 1.3060                 1.3275
 Frc consts  --      1.5366                 0.7515                 0.7714
 IR Inten    --      0.9695                 0.0189                 1.7156

                     28                     29                     30
                      A                      A                      A
 Frequencies --   1017.7636              1028.1966              1055.4725
 Red. masses --      1.6360                 1.7438                 1.5831
 Frc consts  --      0.9985                 1.0861                 1.0391
 IR Inten    --      0.9273                16.8588                 2.6333

                     31                     32                     33
                      A                      A                      A
 Frequencies --   1062.3664              1142.2744              1165.6383
 Red. masses --      1.5323                 1.5917                 1.3519
 Frc consts  --      1.0190                 1.2236                 1.0822
 IR Inten    --      2.8483                 7.9148                 0.4813

                     34                     35                     36
                      A                      A                      A
 Frequencies --   1187.3751              1241.1041              1245.3880
 Red. masses --      1.4114                 2.3044                 3.7560
 Frc consts  --      1.1724                 2.0913                 3.4323
 IR Inten    --      1.2297                 3.4647                 6.0960

                     37                     38                     39
                      A                      A                      A
 Frequencies --   1285.4842              1337.1229              1376.7111
 Red. masses --      1.7452                 2.7859                 3.6519
 Frc consts  --      1.6992                 2.9346                 4.0781
 IR Inten    --      1.5656                11.3247                10.4996

                     40                     41                     42
                      A                      A                      A
 Frequencies --   1393.2349              1405.3635              1414.6238
 Red. masses --      4.8047                 1.3162                 1.2726
 Frc consts  --      5.4949                 1.5316                 1.5005
 IR Inten    --      3.9353                 6.7370                 1.6155

                     43                     44                     45
                      A                      A                      A
 Frequencies --   1422.6911              1478.8321              1484.2683
 Red. masses --      2.9836                 1.1332                 1.0431
 Frc consts  --      3.5580                 1.4601                 1.3539
 IR Inten    --      4.1796                14.1024                 7.5408

                     46                     47                     48
                      A                      A                      A
 Frequencies --   1485.7722              1488.6405              1518.8228
 Red. masses --      1.0443                 1.2386                 2.5495
 Frc consts  --      1.3583                 1.6172                 3.4651
 IR Inten    --      7.9074                12.6973                 2.0773

                     49                     50                     51
                      A                      A                      A
 Frequencies --   1532.2337              1597.3491              1643.0749
 Red. masses --      2.8190                 6.6861                 6.2668
 Frc consts  --      3.8993                10.0513                 9.9681
 IR Inten    --     38.4056                15.0379                73.8172

                     52                     53                     54
                      A                      A                      A
 Frequencies --   1665.2395              3021.4564              3024.2673
 Red. masses --      6.1826                 1.0372                 1.0389
 Frc consts  --     10.1012                 5.5791                 5.5984
 IR Inten    --      1.6242                39.1571                22.7062

                     55                     56                     57
                      A                      A                      A
 Frequencies --   3068.5642              3071.7328              3103.0053
 Red. masses --      1.1002                 1.0997                 1.1002
 Frc consts  --      6.1036                 6.1133                 6.2414
 IR Inten    --     16.4751                16.0903                15.9361

                     58                     59                     60
                      A                      A                      A
 Frequencies --   3133.0431              3148.3232              3157.4402
 Red. masses --      1.0990                 1.0901                 1.0886
 Frc consts  --      6.3561                 6.3664                 6.3940
 IR Inten    --      8.0448                15.6017                12.1088

                     61                     62                     63
                      A                      A                      A
 Frequencies --   3157.7254              3178.9096              3191.3208
 Red. masses --      1.0875                 1.0956                 1.0938
 Frc consts  --      6.3891                 6.5231                 6.5634
 IR Inten    --      9.8340                18.0535                 7.4012

 - Thermochemistry -
 -------------------
 Temperature   298.150 Kelvin.  Pressure   1.00000 Atm.
 Atom     1 has atomic number  6 and mass  12.00000

 Molecular mass:   157.08915 amu.
 Principal axes and moments of inertia in atomic units:
                           1         2         3
     Eigenvalues --   670.459343040.243343688.35857
           X            0.99999  -0.00421   0.00000
           Y            0.00421   0.99999   0.00000
           Z            0.00000   0.00000   1.00000
 This molecule is an asymmetric top.
 Rotational symmetry number  1.
 Warning -- assumption of classical behavior for rotation
           may cause significant error
 Rotational temperatures (Kelvin)      0.12919     0.02849     0.02348
 Rotational constants (GHZ):           2.69180     0.59362     0.48931
 Zero-point vibrational energy     497079.4 (Joules/Mol)
                                  118.80483 (Kcal/Mol)
 Warning -- explicit consideration of  15 degrees of freedom as
           vibrations may cause significant error
 Vibrational temperatures:     88.16   119.12   133.87   245.03   297.32
          (Kelvin)            327.56   473.98   495.19   589.37   603.71
                              662.48   713.45   784.58   785.46   862.90
                              958.13   974.30  1097.17  1131.18  1184.08
                             1209.31  1220.59  1289.66  1336.87  1398.26
                             1421.91  1428.83  1464.33  1479.34  1518.59
                             1528.51  1643.48  1677.09  1708.37  1785.67
                             1791.83  1849.52  1923.82  1980.78  2004.55
                             2022.00  2035.33  2046.93  2127.71  2135.53
                             2137.69  2141.82  2185.24  2204.54  2298.23
                             2364.02  2395.91  4347.20  4351.24  4414.97
                             4419.53  4464.53  4507.74  4529.73  4542.85
                             4543.26  4573.74  4591.59

 Zero-point correction=                           0.189328 (Hartree/Particle)
 Thermal correction to Energy=                    0.199692
 Thermal correction to Enthalpy=                  0.200636
 Thermal correction to Gibbs Free Energy=         0.153135
 Sum of electronic and zero-point Energies=           -480.501125
 Sum of electronic and thermal Energies=              -480.490761
 Sum of electronic and thermal Enthalpies=            -480.489816
 Sum of electronic and thermal Free Energies=         -480.537317

                     E (Thermal)             CV                S
                      KCal/Mol        Cal/Mol-Kelvin    Cal/Mol-Kelvin
 Total                  125.309             40.238             99.975
 Electronic               0.000              0.000              0.000
 Translational            0.889              2.981             41.064
 Rotational               0.889              2.981             30.398
 Vibrational            123.531             34.277             28.512
 Vibration     1          0.597              1.973              4.416
 Vibration     2          0.600              1.961              3.824
 Vibration     3          0.602              1.954              3.595
 Vibration     4          0.625              1.879              2.432
 Vibration     5          0.641              1.830              2.073
 Vibration     6          0.651              1.799              1.897
 Vibration     7          0.712              1.617              1.263
 Vibration     8          0.723              1.587              1.193
 Vibration     9          0.774              1.449              0.928
 Vibration    10          0.782              1.428              0.893
 Vibration    11          0.818              1.338              0.765
 Vibration    12          0.851              1.259              0.669
 Vibration    13          0.900              1.150              0.554
 Vibration    14          0.901              1.149              0.553
 Vibration    15          0.958              1.032              0.450

 Optimization completed.
    -- Stationary point found.
 Normal termination of Gaussian 09 at Mon Jan  9 17:43:23 2023.
