 Gaussian 09, Revision D.01,
 Gaussian 09:  ES64L-G09RevD.01 24-Apr-2013

 ----------------------------------------------------------------------
 # opt=rcfc freq=noraman b3lyp/6-311+g(d,p) pop=(npa,hirshfeld,chelpg,m
 bs) geom=allcheck guess=read
 ----------------------------------------------------------------------

 Structure from the checkpoint file:  "57.chk"
 -------------------
 Title Card Required
 -------------------
 Charge =  0 Multiplicity = 1

 SCF Done:  E(RB3LYP) =  -468.482388095     A.U. after    1 cycles
 SCF Done:  E(RB3LYP) =  -468.482388102     A.U. after    7 cycles
 Optimization completed.
    -- Stationary point found.
 Normal termination of Gaussian 09 at Wed Apr 24 12:51:48 2024.

 ----------------------------------------------------------------------
 #N Geom=AllCheck Guess=TCheck SCRF=Check GenChk RB3LYP/6-311+G(d,p) Fr
 eq
 ----------------------------------------------------------------------

 Structure from the checkpoint file:  "57.chk"
 -------------------
 Title Card Required
 -------------------
 Charge =  0 Multiplicity = 1

                         Standard orientation:
 ---------------------------------------------------------------------
 Center     Atomic      Atomic             Coordinates (Angstroms)
 Number     Number       Type             X           Y           Z
 ---------------------------------------------------------------------
      1          6           0        0.258509   -1.572032   -0.052298
      2          6           0       -0.629726   -0.356875   -0.397505
      3          6           0       -0.070373    0.886224    0.309760
      4          6           0        1.407646    1.115357   -0.025563
      5          6           0        2.292529   -0.090417    0.325700
      6          6           0        1.741252   -1.344213   -0.368786
      7          1           0       -0.530990   -0.172571   -1.476294
      8          1           0        0.150523   -1.814002    1.012950
      9          1           0       -0.107854   -2.444508   -0.602673
     10          1           0        1.490347    1.334552   -1.097881
     11          1           0        1.763480    2.006596    0.508699
     12          1           0        2.225316   -0.253257    1.411228
     13          1           0        1.869685   -1.233560   -1.454184
     14          1           0        2.326622   -2.222540   -0.074514
     15          6           0        3.762399    0.164254   -0.022540
     16          1           0        4.150195    1.043423    0.501056
     17          1           0        4.387753   -0.690611    0.251970
     18          1           0        3.885900    0.335228   -1.097317
     19          6           0       -2.132076   -0.664357   -0.120289
     20          1           0       -2.263669   -1.721690   -0.387261
     21          6           0       -2.532520   -0.521263    1.356556
     22          1           0       -3.549602   -0.893943    1.509731
     23          1           0       -1.874677   -1.087978    2.022322
     24          1           0       -2.515606    0.526368    1.669328
     25          6           0       -3.085130    0.138449   -1.020076
     26          1           0       -2.846389   -0.011225   -2.077740
     27          1           0       -4.119730   -0.184805   -0.864898
     28          1           0       -3.019708    1.206774   -0.810258
     29          1           0       -0.161375    0.740369    1.396459
     30          8           0       -0.858094    2.024618   -0.072379
     31          1           0       -0.470531    2.809685    0.328552
 ---------------------------------------------------------------------

 SCF Done:  E(RB3LYP) =  -468.482388102     A.U. after    1 cycles

 The electronic state is 1-A.
 Alpha  occ. eigenvalues --  -19.12140 -10.21879 -10.17697 -10.16860 -10.16741
 Alpha  occ. eigenvalues --  -10.16700 -10.16530 -10.16507 -10.16118 -10.15036
 Alpha  occ. eigenvalues --  -10.14119  -1.02328  -0.84106  -0.79871  -0.74692
 Alpha  occ. eigenvalues --   -0.73595  -0.67909  -0.67443  -0.62090  -0.59899
 Alpha  occ. eigenvalues --   -0.56459  -0.54649  -0.51027  -0.46961  -0.46788
 Alpha  occ. eigenvalues --   -0.45393  -0.44327  -0.42179  -0.41045  -0.40192
 Alpha  occ. eigenvalues --   -0.39369  -0.38730  -0.38288  -0.36991  -0.36319
 Alpha  occ. eigenvalues --   -0.35904  -0.34498  -0.33900  -0.32798  -0.31611
 Alpha  occ. eigenvalues --   -0.31510  -0.30578  -0.29406  -0.27362
 Alpha virt. eigenvalues --   -0.00343   0.00746   0.01091   0.01417   0.02841
 Alpha virt. eigenvalues --    0.03653   0.03879   0.04117   0.05098   0.05574
 Alpha virt. eigenvalues --    0.05932   0.06383   0.07301   0.07836   0.08125

 Mulliken charges:
               1
     1  C   -0.414796
     2  C    0.362291
     3  C   -0.305050
     4  C   -0.521663
     5  C    0.307215
     6  C   -0.440255
     7  H    0.145989
     8  H    0.146714
     9  H    0.141706
    10  H    0.169473
    11  H    0.126577
    12  H    0.137715
    13  H    0.147022
    14  H    0.141342
    15  C   -0.693105
    16  H    0.135302
    17  H    0.137106
    18  H    0.144618
    19  C    0.217671
    20  H    0.110995
    21  C   -0.587030
    22  H    0.134761
    23  H    0.130912
    24  H    0.151673
    25  C   -0.603957
    26  H    0.127500
    27  H    0.124620
    28  H    0.167126
    29  H    0.153687
    30  O   -0.223975
    31  H    0.227817
 Sum of Mulliken charges =   0.00000

 Dipole moment (field-independent basis, Debye):
    X=              1.5361    Y=             -0.1030    Z=              0.8885  Tot=              1.7775
 Quadrupole moment (field-independent basis, Debye-Ang):
   XX=            -75.8116   YY=            -70.3304   ZZ=            -72.9405
   XY=              2.4437   XZ=             -0.2149   YZ=              2.7376

  Exact polarizability: 142.432   0.324 117.613  -0.074  -0.154 107.882
 Approx polarizability: 167.911  -0.416 169.392   0.396  -0.401 167.049

 ESP charges:
               1
     1  C   -0.117459
     2  C   -0.077028
     3  C    0.371880
     4  C   -0.291160
     5  C    0.400880
     6  C   -0.043452
     7  H    0.044174
     8  H    0.018902
     9  H    0.037737
    10  H    0.059047
    11  H    0.040682
    12  H   -0.080856
    13  H   -0.000508
    14  H    0.001196
    15  C   -0.301904
    16  H    0.063731
    17  H    0.051168
    18  H    0.057232
    19  C    0.429440
    20  H   -0.088655
    21  C   -0.302636
    22  H    0.059416
    23  H    0.045440
    24  H    0.058142
    25  C   -0.267498
    26  H    0.030731
    27  H    0.040927
    28  H    0.076364
    29  H   -0.021045
    30  O   -0.692780
    31  H    0.397891
 Sum of ESP charges =   0.00000

 Summary of Natural Population Analysis:

                                       Natural Population
                Natural  -----------------------------------------------
    Atom  No    Charge         Core      Valence    Rydberg      Total
 -----------------------------------------------------------------------
      C    1   -0.37711      1.99925     4.36254    0.01532     6.37711
      C    2   -0.22615      1.99912     4.20554    0.02148     6.22615
      C    3    0.13021      1.99900     3.84727    0.02351     5.86979
      C    4   -0.39976      1.99921     4.38270    0.01785     6.39976
      C    5   -0.22624      1.99921     4.21228    0.01476     6.22624
      C    6   -0.37646      1.99925     4.36173    0.01549     6.37646
      H    7    0.20042      0.00000     0.79659    0.00299     0.79958
      H    8    0.19146      0.00000     0.80621    0.00232     0.80854
      H    9    0.20335      0.00000     0.79474    0.00191     0.79665
      H   10    0.20109      0.00000     0.79644    0.00247     0.79891
      H   11    0.19335      0.00000     0.80449    0.00216     0.80665
      H   12    0.18559      0.00000     0.81069    0.00372     0.81441
      H   13    0.19075      0.00000     0.80711    0.00214     0.80925
      H   14    0.20151      0.00000     0.79688    0.00161     0.79849
      C   15   -0.56731      1.99934     4.55745    0.01052     6.56731
      H   16    0.19941      0.00000     0.79931    0.00128     0.80059
      H   17    0.20093      0.00000     0.79777    0.00130     0.79907
      H   18    0.19541      0.00000     0.80296    0.00163     0.80459
      C   19   -0.21830      1.99922     4.20192    0.01716     6.21830
      H   20    0.18264      0.00000     0.81387    0.00350     0.81736
      C   21   -0.58018      1.99933     4.57071    0.01014     6.58018
      H   22    0.20110      0.00000     0.79763    0.00127     0.79890
      H   23    0.19404      0.00000     0.80451    0.00145     0.80596
      H   24    0.20175      0.00000     0.79669    0.00157     0.79825
      C   25   -0.57086      1.99933     4.56155    0.00998     6.57086
      H   26    0.19415      0.00000     0.80470    0.00115     0.80585
      H   27    0.19134      0.00000     0.80734    0.00131     0.80866
      H   28    0.21891      0.00000     0.77969    0.00140     0.78109
      H   29    0.15789      0.00000     0.83858    0.00353     0.84211
      O   30   -0.74934      1.99978     6.73634    0.01322     8.74934
      H   31    0.45642      0.00000     0.53889    0.00469     0.54358
 =======================================================================
   * Total *    0.00000     21.99205    65.79513    0.21282    88.00000

                      1                      2                      3
                      A                      A                      A
 Frequencies --     64.5930                81.6730               153.2389
 Red. masses --      3.2687                 2.4729                 2.7678
 Frc consts  --      0.0080                 0.0097                 0.0383
 IR Inten    --      0.0814                 0.0709                 1.3351

                      4                      5                      6
                      A                      A                      A
 Frequencies --    193.7087               205.5745               222.9217
 Red. masses --      2.9845                 2.0135                 1.1839
 Frc consts  --      0.0660                 0.0501                 0.0347
 IR Inten    --      0.8884                 0.6735                 0.5982

                      7                      8                      9
                      A                      A                      A
 Frequencies --    236.6028               251.0142               265.6496
 Red. masses --      1.0794                 2.1560                 1.0927
 Frc consts  --      0.0356                 0.0800                 0.0454
 IR Inten    --      0.0001                 7.9309                 0.6212

                     10                     11                     12
                      A                      A                      A
 Frequencies --    275.7476               287.1664               293.8428
 Red. masses --      1.4076                 2.0976                 2.1871
 Frc consts  --      0.0631                 0.1019                 0.1113
 IR Inten    --     67.4403                 3.9407                29.3935

                     13                     14                     15
                      A                      A                      A
 Frequencies --    377.6745               403.1575               419.4118
 Red. masses --      2.8168                 2.5675                 2.1987
 Frc consts  --      0.2367                 0.2459                 0.2279
 IR Inten    --      5.4166                 0.9512                 1.9659

                     16                     17                     18
                      A                      A                      A
 Frequencies --    438.4524               462.6850               505.0727
 Red. masses --      3.1086                 2.5364                 2.9858
 Frc consts  --      0.3521                 0.3199                 0.4488
 IR Inten    --      0.3604                 2.1269                 3.0044

                     19                     20                     21
                      A                      A                      A
 Frequencies --    524.9989               600.3342               770.2069
 Red. masses --      2.8193                 2.3998                 2.1443
 Frc consts  --      0.4578                 0.5096                 0.7495
 IR Inten    --      4.3312                 6.4269                 1.0247

                     22                     23                     24
                      A                      A                      A
 Frequencies --    813.5349               852.1885               883.4646
 Red. masses --      2.1693                 1.9745                 1.8980
 Frc consts  --      0.8459                 0.8449                 0.8728
 IR Inten    --      0.7795                 3.7705                 3.2878

                     25                     26                     27
                      A                      A                      A
 Frequencies --    925.8460               930.2573               937.3965
 Red. masses --      1.3461                 1.7267                 1.4600
 Frc consts  --      0.6799                 0.8804                 0.7559
 IR Inten    --      0.3633                 0.7300                 4.8101

                     28                     29                     30
                      A                      A                      A
 Frequencies --    964.0866               977.0216               990.8568
 Red. masses --      1.4495                 1.5300                 2.6898
 Frc consts  --      0.7938                 0.8605                 1.5559
 IR Inten    --      0.2653                 0.1960                 5.4268

                     31                     32                     33
                      A                      A                      A
 Frequencies --   1002.5946              1029.3559              1059.5358
 Red. masses --      1.9953                 2.7726                 1.8691
 Frc consts  --      1.1817                 1.7309                 1.2363
 IR Inten    --      9.2022                55.1707                17.0733

                     34                     35                     36
                      A                      A                      A
 Frequencies --   1068.0629              1081.1377              1106.6484
 Red. masses --      1.9914                 1.9453                 1.2284
 Frc consts  --      1.3385                 1.3397                 0.8864
 IR Inten    --      1.6939                 1.1495                 7.2749

                     37                     38                     39
                      A                      A                      A
 Frequencies --   1115.4674              1149.1650              1167.9701
 Red. masses --      2.7076                 1.8188                 2.4283
 Frc consts  --      1.9849                 1.4151                 1.9517
 IR Inten    --      6.8201                 8.5575                 0.8241

                     40                     41                     42
                      A                      A                      A
 Frequencies --   1191.6935              1205.6309              1236.5283
 Red. masses --      1.8635                 1.9621                 1.3647
 Frc consts  --      1.5592                 1.6803                 1.2294
 IR Inten    --      8.5035                 1.4570                23.0680

                     43                     44                     45
                      A                      A                      A
 Frequencies --   1269.8498              1281.4429              1301.3799
 Red. masses --      1.3492                 1.2823                 1.2637
 Frc consts  --      1.2818                 1.2406                 1.2609
 IR Inten    --      0.7363                21.2227                 0.4276

                     46                     47                     48
                      A                      A                      A
 Frequencies --   1314.4060              1327.7872              1339.6104
 Red. masses --      1.2873                 1.2967                 1.2727
 Frc consts  --      1.3104                 1.3469                 1.3457
 IR Inten    --      1.3684                 3.6161                 2.7199

                     49                     50                     51
                      A                      A                      A
 Frequencies --   1365.0759              1372.1907              1373.7701
 Red. masses --      1.3372                 1.3014                 1.3743
 Frc consts  --      1.4681                 1.4438                 1.5282
 IR Inten    --      1.2565                 1.7358                 4.0551

                     52                     53                     54
                      A                      A                      A
 Frequencies --   1380.0382              1387.6777              1394.5636
 Red. masses --      1.3159                 1.4084                 1.5963
 Frc consts  --      1.4766                 1.5979                 1.8291
 IR Inten    --      3.2219                10.2897                 8.3759

                     55                     56                     57
                      A                      A                      A
 Frequencies --   1400.2759              1411.4539              1419.1513
 Red. masses --      1.2796                 1.2411                 1.2297
 Frc consts  --      1.4783                 1.4567                 1.4592
 IR Inten    --      9.8697                 2.4782                 8.3143

                     58                     59                     60
                      A                      A                      A
 Frequencies --   1436.9862              1483.9634              1487.1676
 Red. masses --      1.5071                 1.0944                 1.0575
 Frc consts  --      1.8336                 1.4199                 1.3780
 IR Inten    --      1.7285                 0.1925                 1.1124

                     61                     62                     63
                      A                      A                      A
 Frequencies --   1490.9231              1496.8111              1499.3010
 Red. masses --      1.0727                 1.0672                 1.0531
 Frc consts  --      1.4048                 1.4087                 1.3947
 IR Inten    --      7.5124                 4.3235                 2.6880

                     64                     65                     66
                      A                      A                      A
 Frequencies --   1500.9854              1501.5785              1506.6517
 Red. masses --      1.0766                 1.0568                 1.0455
 Frc consts  --      1.4291                 1.4039                 1.3983
 IR Inten    --      6.1415                 6.7016                 9.1351

                     67                     68                     69
                      A                      A                      A
 Frequencies --   1517.0187              2966.6437              2977.9588
 Red. masses --      1.0561                 1.0813                 1.0812
 Frc consts  --      1.4320                 5.6069                 5.6491
 IR Inten    --      7.4626                10.4229                14.1220

                     70                     71                     72
                      A                      A                      A
 Frequencies --   2984.9232              2990.5036              2993.9185
 Red. masses --      1.0821                 1.0685                 1.0724
 Frc consts  --      5.6805                 5.6300                 5.6634
 IR Inten    --     22.4956                42.7347                16.0433

                     73                     74                     75
                      A                      A                      A
 Frequencies --   2997.1663              3006.3436              3014.8925
 Red. masses --      1.0666                 1.0668                 1.0363
 Frc consts  --      5.6451                 5.6809                 5.5496
 IR Inten    --     12.0914                44.6819                52.9280

                     76                     77                     78
                      A                      A                      A
 Frequencies --   3018.6403              3023.2629              3034.8555
 Red. masses --      1.0376                 1.0374                 1.1004
 Frc consts  --      5.5705                 5.5867                 5.9713
 IR Inten    --     51.5700                24.3949                37.6129

                     79                     80                     81
                      A                      A                      A
 Frequencies --   3042.9320              3052.3966              3071.2524
 Red. masses --      1.0959                 1.0990                 1.1010
 Frc consts  --      5.9788                 6.0329                 6.1186
 IR Inten    --     54.3462                53.1004                39.7413

                     82                     83                     84
                      A                      A                      A
 Frequencies --   3075.8586              3078.5018              3079.6705
 Red. masses --      1.1010                 1.1007                 1.1016
 Frc consts  --      6.1373                 6.1463                 6.1559
 IR Inten    --     53.8791                58.7183                35.8981

                     85                     86                     87
                      A                      A                      A
 Frequencies --   3088.0333              3117.4596              3823.2958
 Red. masses --      1.1018                 1.0979                 1.0664
 Frc consts  --      6.1902                 6.2865                 9.1844
 IR Inten    --     30.2013                17.1456                17.6808

 - Thermochemistry -
 -------------------
 Temperature   298.150 Kelvin.  Pressure   1.00000 Atm.
 Atom     1 has atomic number  6 and mass  12.00000

 Molecular mass:   156.15142 amu.
 Principal axes and moments of inertia in atomic units:
                           1         2         3
     Eigenvalues --   926.588022711.038573146.35185
           X            0.99997   0.00724  -0.00238
           Y           -0.00723   0.99997   0.00135
           Z            0.00239  -0.00133   1.00000
 This molecule is an asymmetric top.
 Rotational symmetry number  1.
 Warning -- assumption of classical behavior for rotation
           may cause significant error
 Rotational temperatures (Kelvin)      0.09348     0.03195     0.02753
 Rotational constants (GHZ):           1.94773     0.66570     0.57360
 Zero-point vibrational energy     750182.6 (Joules/Mol)
                                  179.29795 (Kcal/Mol)
 Warning -- explicit consideration of  20 degrees of freedom as
           vibrations may cause significant error
 Vibrational temperatures:     92.93   117.51   220.48   278.70   295.78
          (Kelvin)            320.73   340.42   361.15   382.21   396.74
                              413.17   422.77   543.39   580.05   603.44
                              630.83   665.70   726.69   755.36   863.75
                             1108.15  1170.49  1226.11  1271.11  1332.08
                             1338.43  1348.70  1387.10  1405.71  1425.62
                             1442.51  1481.01  1524.43  1536.70  1555.51
                             1592.22  1604.91  1653.39  1680.45  1714.58
                             1734.63  1779.09  1827.03  1843.71  1872.39
                             1891.13  1910.39  1927.40  1964.04  1974.27
                             1976.55  1985.56  1996.56  2006.46  2014.68
                             2030.76  2041.84  2067.50  2135.09  2139.70
                             2145.10  2153.57  2157.16  2159.58  2160.43
                             2167.73  2182.65  4268.33  4284.61  4294.63
                             4302.66  4307.58  4312.25  4325.45  4337.75
                             4343.14  4349.80  4366.47  4378.09  4391.71
                             4418.84  4425.47  4429.27  4430.95  4442.99
                             4485.32  5500.86

 Zero-point correction=                           0.285729 (Hartree/Particle)
 Thermal correction to Energy=                    0.298262
 Thermal correction to Enthalpy=                  0.299206
 Thermal correction to Gibbs Free Energy=         0.248389
 Sum of electronic and zero-point Energies=           -468.196659
 Sum of electronic and thermal Energies=              -468.184126
 Sum of electronic and thermal Enthalpies=            -468.183182
 Sum of electronic and thermal Free Energies=         -468.233999

                     E (Thermal)             CV                S
                      KCal/Mol        Cal/Mol-Kelvin    Cal/Mol-Kelvin
 Total                  187.162             49.145            106.954
 Electronic               0.000              0.000              0.000
 Translational            0.889              2.981             41.046
 Rotational               0.889              2.981             30.448
 Vibrational            185.385             43.184             35.460
 Vibration     1          0.597              1.971              4.312
 Vibration     2          0.600              1.962              3.850
 Vibration     3          0.619              1.899              2.632
 Vibration     4          0.635              1.849              2.192
 Vibration     5          0.640              1.832              2.083
 Vibration     6          0.649              1.806              1.935
 Vibration     7          0.655              1.785              1.828
 Vibration     8          0.663              1.761              1.723
 Vibration     9          0.671              1.736              1.624
 Vibration    10          0.677              1.718              1.560
 Vibration    11          0.684              1.698              1.491
 Vibration    12          0.689              1.685              1.452
 Vibration    13          0.748              1.518              1.048
 Vibration    14          0.769              1.463              0.951
 Vibration    15          0.782              1.428              0.894
 Vibration    16          0.799              1.386              0.831
 Vibration    17          0.820              1.333              0.758
 Vibration    18          0.860              1.239              0.646
 Vibration    19          0.880              1.195              0.598
 Vibration    20          0.958              1.031              0.449

 Optimization completed.
    -- Stationary point found.
 Normal termination of Gaussian 09 at Wed Apr 24 12:58:17 2024.
