 Gaussian 09, Revision D.01,
 Gaussian 09:  ES64L-G09RevD.01 24-Apr-2013

 ----------------------------------------------------------------------
 # opt freq=noraman b3lyp/6-311+g(d,p) pop=(npa,hirshfeld,chelpg,mbs) g
 eom=connectivity
 ----------------------------------------------------------------------

 -------------------
 Title Card Required
 -------------------
 Symbolic Z-matrix:
 Charge =  0 Multiplicity = 1

 SCF Done:  E(RB3LYP) =  -542.160166820     A.U. after   15 cycles
 SCF Done:  E(RB3LYP) =  -542.261194415     A.U. after   13 cycles
 SCF Done:  E(RB3LYP) =  -542.387011250     A.U. after   13 cycles
 SCF Done:  E(RB3LYP) =  -542.452364359     A.U. after   13 cycles
 SCF Done:  E(RB3LYP) =  -542.480815949     A.U. after   13 cycles
 SCF Done:  E(RB3LYP) =  -542.489521421     A.U. after   11 cycles
 SCF Done:  E(RB3LYP) =  -542.494332002     A.U. after   11 cycles
 SCF Done:  E(RB3LYP) =  -542.495868292     A.U. after   11 cycles
 SCF Done:  E(RB3LYP) =  -542.497271757     A.U. after   11 cycles
 SCF Done:  E(RB3LYP) =  -542.498860727     A.U. after   10 cycles
 SCF Done:  E(RB3LYP) =  -542.499211149     A.U. after   10 cycles
 SCF Done:  E(RB3LYP) =  -542.499290809     A.U. after   10 cycles
 SCF Done:  E(RB3LYP) =  -542.499301846     A.U. after    8 cycles
 SCF Done:  E(RB3LYP) =  -542.499314172     A.U. after    9 cycles
 SCF Done:  E(RB3LYP) =  -542.499337191     A.U. after   10 cycles
 SCF Done:  E(RB3LYP) =  -542.499364213     A.U. after    9 cycles
 SCF Done:  E(RB3LYP) =  -542.499367673     A.U. after    9 cycles
 SCF Done:  E(RB3LYP) =  -542.499368193     A.U. after    8 cycles
 SCF Done:  E(RB3LYP) =  -542.499367508     A.U. after    8 cycles
 Optimization completed.
    -- Stationary point found.
 Normal termination of Gaussian 09 at Tue Apr 23 13:22:13 2024.

 ----------------------------------------------------------------------
 #N Geom=AllCheck Guess=TCheck SCRF=Check GenChk RB3LYP/6-311+G(d,p) Fr
 eq
 ----------------------------------------------------------------------

 Structure from the checkpoint file:  "61.chk"
 -------------------
 Title Card Required
 -------------------
 Charge =  0 Multiplicity = 1

                         Standard orientation:
 ---------------------------------------------------------------------
 Center     Atomic      Atomic             Coordinates (Angstroms)
 Number     Number       Type             X           Y           Z
 ---------------------------------------------------------------------
      1          6           0        1.170085    0.516234    1.160256
      2          6           0        2.051168    0.057480   -0.015747
      3          6           0        1.151274    0.115041   -1.262618
      4          1           0        0.966198    1.593256    1.070888
      5          1           0        1.669204    0.348987    2.117729
      6          1           0        0.919275    1.161831   -1.509065
      7          1           0        1.643781   -0.333218   -2.128769
      8          8           0       -0.052322   -0.626271   -1.071635
      9          8           0       -0.053199   -0.214504    1.231758
     10          6           0        3.232441    1.022174   -0.181900
     11          1           0        3.864319    1.023671    0.711871
     12          1           0        3.861357    0.727330   -1.027738
     13          1           0        2.896486    2.049446   -0.356088
     14          6           0        2.557294   -1.375275    0.215898
     15          1           0        3.161011   -1.713969   -0.631933
     16          1           0        3.181803   -1.424240    1.113347
     17          1           0        1.725946   -2.069859    0.340734
     18          6           0       -0.832663   -0.190076    0.037553
     19          6           0       -1.506742    1.195076   -0.217312
     20          6           0       -1.988509   -1.192976    0.220142
     21          6           0       -2.985887    0.993350    0.157180
     22          1           0       -1.425030    1.431394   -1.281991
     23          1           0       -1.035988    2.004378    0.342741
     24          6           0       -3.258493   -0.464427   -0.243426
     25          1           0       -2.050315   -1.430801    1.284714
     26          1           0       -1.775635   -2.112906   -0.324837
     27          1           0       -3.118963    1.111440    1.238034
     28          1           0       -3.645696    1.712268   -0.334798
     29          1           0       -4.167067   -0.873099    0.205021
     30          1           0       -3.366313   -0.539317   -1.330983
 ---------------------------------------------------------------------

 SCF Done:  E(RB3LYP) =  -542.499367508     A.U. after    1 cycles

 The electronic state is 1-A.
 Alpha  occ. eigenvalues --  -19.12602 -19.12543 -10.27159 -10.21773 -10.21771
 Alpha  occ. eigenvalues --  -10.18748 -10.16879 -10.16670 -10.16648 -10.16385
 Alpha  occ. eigenvalues --  -10.15914 -10.15592  -1.07308  -1.00419  -0.84382
 Alpha  occ. eigenvalues --   -0.81540  -0.72555  -0.71166  -0.69205  -0.68349
 Alpha  occ. eigenvalues --   -0.65908  -0.59023  -0.57930  -0.52530  -0.51719
 Alpha  occ. eigenvalues --   -0.50018  -0.47749  -0.47087  -0.46124  -0.44083
 Alpha  occ. eigenvalues --   -0.43158  -0.42371  -0.40409  -0.39575  -0.39042
 Alpha  occ. eigenvalues --   -0.37886  -0.36904  -0.36143  -0.35564  -0.34697
 Alpha  occ. eigenvalues --   -0.34046  -0.33704  -0.33068  -0.31673  -0.31064
 Alpha  occ. eigenvalues --   -0.26224  -0.26162
 Alpha virt. eigenvalues --   -0.00183   0.01079   0.01960   0.02103   0.02847
 Alpha virt. eigenvalues --    0.03591   0.03649   0.04046   0.05185   0.05346
 Alpha virt. eigenvalues --    0.06118   0.06266   0.06955   0.07642   0.07890

 Mulliken charges:
               1
     1  C   -0.296474
     2  C    0.378839
     3  C   -0.292582
     4  H    0.132157
     5  H    0.157538
     6  H    0.138206
     7  H    0.157194
     8  O    0.027424
     9  O    0.019422
    10  C   -0.500082
    11  H    0.143747
    12  H    0.143653
    13  H    0.139192
    14  C   -0.380129
    15  H    0.136773
    16  H    0.136450
    17  H    0.179522
    18  C   -0.941422
    19  C    0.105675
    20  C   -0.281978
    21  C   -0.396232
    22  H    0.163218
    23  H    0.156538
    24  C   -0.159719
    25  H    0.168574
    26  H    0.167772
    27  H    0.153869
    28  H    0.148707
    29  H    0.146196
    30  H    0.147950
 Sum of Mulliken charges =   0.00000

 Dipole moment (field-independent basis, Debye):
    X=              0.7469    Y=              1.5199    Z=             -0.2730  Tot=              1.7154
 Quadrupole moment (field-independent basis, Debye-Ang):
   XX=            -71.3283   YY=            -76.5259   ZZ=            -77.7681
   XY=              0.5713   XZ=             -0.1575   YZ=             -0.4050

  Exact polarizability: 143.335   1.208 113.880  -0.146  -0.493 106.997
 Approx polarizability: 170.996   2.537 165.304  -0.401  -0.085 164.715

 ESP charges:
               1
     1  C    0.249341
     2  C    0.298409
     3  C    0.310935
     4  H   -0.049138
     5  H    0.026419
     6  H   -0.080372
     7  H    0.011546
     8  O   -0.633854
     9  O   -0.625878
    10  C   -0.451710
    11  H    0.095131
    12  H    0.095368
    13  H    0.091146
    14  C   -0.139968
    15  H    0.020868
    16  H    0.021492
    17  H    0.030234
    18  C    0.873306
    19  C   -0.193874
    20  C   -0.149421
    21  C   -0.048511
    22  H    0.057877
    23  H    0.054714
    24  C    0.031214
    25  H    0.039475
    26  H    0.038768
    27  H    0.013831
    28  H    0.016963
    29  H    0.004591
    30  H   -0.008906
 Sum of ESP charges =   0.00000

 Summary of Natural Population Analysis:

                                       Natural Population
                Natural  -----------------------------------------------
    Atom  No    Charge         Core      Valence    Rydberg      Total
 -----------------------------------------------------------------------
      C    1   -0.01903      1.99903     3.99566    0.02433     6.01903
      C    2   -0.14248      1.99917     4.12820    0.01510     6.14248
      C    3   -0.02126      1.99903     3.99783    0.02440     6.02126
      H    4    0.16250      0.00000     0.83519    0.00231     0.83750
      H    5    0.19176      0.00000     0.80674    0.00150     0.80824
      H    6    0.16489      0.00000     0.83305    0.00206     0.83511
      H    7    0.19162      0.00000     0.80689    0.00150     0.80838
      O    8   -0.61962      1.99973     6.60009    0.01979     8.61962
      O    9   -0.61988      1.99973     6.59988    0.02027     8.61988
      C   10   -0.57486      1.99928     4.56366    0.01192     6.57486
      H   11    0.20615      0.00000     0.79240    0.00145     0.79385
      H   12    0.20622      0.00000     0.79233    0.00145     0.79378
      H   13    0.20084      0.00000     0.79753    0.00163     0.79916
      C   14   -0.57563      1.99929     4.56308    0.01326     6.57563
      H   15    0.19787      0.00000     0.80082    0.00132     0.80213
      H   16    0.19782      0.00000     0.80086    0.00132     0.80218
      H   17    0.22124      0.00000     0.77679    0.00197     0.77876
      C   18    0.59592      1.99907     3.36193    0.04308     5.40408
      C   19   -0.43714      1.99916     4.42333    0.01465     6.43714
      C   20   -0.40547      1.99915     4.38942    0.01690     6.40547
      C   21   -0.38387      1.99931     4.37060    0.01395     6.38387
      H   22    0.20756      0.00000     0.79036    0.00207     0.79244
      H   23    0.20812      0.00000     0.79017    0.00171     0.79188
      C   24   -0.38631      1.99931     4.37340    0.01360     6.38631
      H   25    0.21716      0.00000     0.78103    0.00181     0.78284
      H   26    0.22223      0.00000     0.77585    0.00192     0.77777
      H   27    0.19427      0.00000     0.80364    0.00209     0.80573
      H   28    0.20180      0.00000     0.79651    0.00169     0.79820
      H   29    0.20364      0.00000     0.79484    0.00152     0.79636
      H   30    0.19393      0.00000     0.80417    0.00190     0.80607
 =======================================================================
   * Total *    0.00000     23.99127    69.74623    0.26249    94.00000

                      1                      2                      3
                      A                      A                      A
 Frequencies --     37.8661                88.6271               168.2966
 Red. masses --      2.4777                 3.4485                 2.4538
 Frc consts  --      0.0021                 0.0160                 0.0409
 IR Inten    --      0.0321                 0.5869                 0.2239

                      4                      5                      6
                      A                      A                      A
 Frequencies --    199.4520               220.3836               229.7251
 Red. masses --      1.0469                 2.4679                 1.2767
 Frc consts  --      0.0245                 0.0706                 0.0397
 IR Inten    --      0.0302                 1.5958                 0.4149

                      7                      8                      9
                      A                      A                      A
 Frequencies --    242.7702               283.3582               315.7842
 Red. masses --      2.3604                 1.8511                 2.6451
 Frc consts  --      0.0820                 0.0876                 0.1554
 IR Inten    --      2.2338                 0.2026                 3.4029

                     10                     11                     12
                      A                      A                      A
 Frequencies --    320.8341               399.1816               418.8747
 Red. masses --      2.3490                 2.9930                 1.9022
 Frc consts  --      0.1425                 0.2810                 0.1966
 IR Inten    --      3.3219                 2.4077                 1.1309

                     13                     14                     15
                      A                      A                      A
 Frequencies --    424.1260               438.6978               504.9319
 Red. masses --      2.0762                 2.3563                 4.2769
 Frc consts  --      0.2200                 0.2672                 0.6425
 IR Inten    --      2.2811                 0.1695                10.2685

                     16                     17                     18
                      A                      A                      A
 Frequencies --    515.4034               555.6580               577.2410
 Red. masses --      5.4508                 1.9172                 3.8278
 Frc consts  --      0.8531                 0.3488                 0.7515
 IR Inten    --      2.7640                 0.4287                 3.8788

                     19                     20                     21
                      A                      A                      A
 Frequencies --    677.8276               721.8038               789.3749
 Red. masses --      4.1047                 2.6036                 3.4014
 Frc consts  --      1.1111                 0.7992                 1.2488
 IR Inten    --      1.5462                 0.6554                 2.3981

                     22                     23                     24
                      A                      A                      A
 Frequencies --    817.6961               839.8076               871.2929
 Red. masses --      2.3165                 1.8948                 2.0235
 Frc consts  --      0.9126                 0.7874                 0.9051
 IR Inten    --     30.5798                 1.8080                 7.8590

                     25                     26                     27
                      A                      A                      A
 Frequencies --    910.9263               913.6155               925.9110
 Red. masses --      1.9978                 2.3140                 2.1863
 Frc consts  --      0.9767                 1.1380                 1.1043
 IR Inten    --      4.7168                 1.8283                 5.2043

                     28                     29                     30
                      A                      A                      A
 Frequencies --    952.8191               953.4308               968.6718
 Red. masses --      1.4074                 1.4381                 1.7949
 Frc consts  --      0.7528                 0.7702                 0.9923
 IR Inten    --      2.8742                 1.5096                 6.9234

                     31                     32                     33
                      A                      A                      A
 Frequencies --    984.5615              1000.6381              1026.0424
 Red. masses --      1.4615                 3.3074                 2.8153
 Frc consts  --      0.8347                 1.9512                 1.7462
 IR Inten    --     35.0612                21.0007                 8.9653

                     34                     35                     36
                      A                      A                      A
 Frequencies --   1037.9943              1049.2496              1058.1213
 Red. masses --      1.9257                 1.5888                 2.0799
 Frc consts  --      1.2224                 1.0306                 1.3720
 IR Inten    --      5.4160                 8.8808                 9.5036

                     37                     38                     39
                      A                      A                      A
 Frequencies --   1070.5552              1122.8700              1167.2458
 Red. masses --      1.8604                 4.1613                 2.5058
 Frc consts  --      1.2563                 3.0912                 2.0115
 IR Inten    --      7.0333               219.6082                23.3163

                     40                     41                     42
                      A                      A                      A
 Frequencies --   1204.9972              1206.5595              1215.6891
 Red. masses --      2.4428                 1.5894                 2.1735
 Frc consts  --      2.0898                 1.3633                 1.8926
 IR Inten    --     23.4607                20.1507                61.6044

                     43                     44                     45
                      A                      A                      A
 Frequencies --   1244.0200              1251.8930              1256.8264
 Red. masses --      2.0232                 1.3484                 1.8242
 Frc consts  --      1.8447                 1.2451                 1.6977
 IR Inten    --      3.3684                 3.4174                 6.5128

                     46                     47                     48
                      A                      A                      A
 Frequencies --   1273.4386              1303.4238              1320.4036
 Red. masses --      1.5300                 1.4639                 1.3285
 Frc consts  --      1.4619                 1.4653                 1.3646
 IR Inten    --      5.9651                 0.8954                 2.0045

                     49                     50                     51
                      A                      A                      A
 Frequencies --   1339.7798              1340.4799              1346.2634
 Red. masses --      1.3791                 1.3058                 1.4233
 Frc consts  --      1.4585                 1.3824                 1.5199
 IR Inten    --      2.8336                10.9458                 2.3855

                     52                     53                     54
                      A                      A                      A
 Frequencies --   1365.3859              1378.3466              1396.0120
 Red. masses --      1.6838                 1.2868                 1.2798
 Frc consts  --      1.8495                 1.4404                 1.4695
 IR Inten    --     33.1685                 3.8569                 7.3343

                     55                     56                     57
                      A                      A                      A
 Frequencies --   1404.6113              1430.1785              1475.5054
 Red. masses --      1.2961                 1.2469                 1.0882
 Frc consts  --      1.5066                 1.5027                 1.3959
 IR Inten    --      5.7597                19.1949                 2.2859

                     58                     59                     60
                      A                      A                      A
 Frequencies --   1478.9428              1485.3074              1489.4732
 Red. masses --      1.0853                 1.0569                 1.0462
 Frc consts  --      1.3986                 1.3738                 1.3675
 IR Inten    --      6.9878                 1.1883                 0.0355

                     61                     62                     63
                      A                      A                      A
 Frequencies --   1495.4346              1497.2838              1504.4545
 Red. masses --      1.0854                 1.0797                 1.0564
 Frc consts  --      1.4301                 1.4261                 1.4088
 IR Inten    --      6.0980                 1.8383                 6.2190

                     64                     65                     66
                      A                      A                      A
 Frequencies --   1510.0374              1513.0565              1513.9077
 Red. masses --      1.0978                 1.0771                 1.0785
 Frc consts  --      1.4748                 1.4528                 1.4564
 IR Inten    --      1.7110                12.7044                13.6933

                     67                     68                     69
                      A                      A                      A
 Frequencies --   2975.9311              2982.1040              3015.0466
 Red. masses --      1.0687                 1.0690                 1.0354
 Frc consts  --      5.5763                 5.6009                 5.5454
 IR Inten    --     18.1868                73.8446                34.9850

                     70                     71                     72
                      A                      A                      A
 Frequencies --   3023.7163              3024.7042              3029.9245
 Red. masses --      1.0392                 1.0696                 1.0613
 Frc consts  --      5.5979                 5.7653                 5.7404
 IR Inten    --     37.1103                16.9629                37.0081

                     73                     74                     75
                      A                      A                      A
 Frequencies --   3045.6997              3059.5798              3072.6868
 Red. masses --      1.0643                 1.0658                 1.0957
 Frc consts  --      5.8170                 5.8785                 6.0948
 IR Inten    --     21.7667                12.8430                 7.6985

                     76                     77                     78
                      A                      A                      A
 Frequencies --   3074.3714              3075.8747              3076.2190
 Red. masses --      1.0980                 1.0931                 1.1000
 Frc consts  --      6.1143                 6.0934                 6.1333
 IR Inten    --      3.1742                32.2848                 4.1015

                     79                     80                     81
                      A                      A                      A
 Frequencies --   3079.8024              3081.5935              3081.8840
 Red. masses --      1.0986                 1.0997                 1.0981
 Frc consts  --      6.1395                 6.1526                 6.1451
 IR Inten    --     61.0775                87.3949                51.3513

                     82                     83                     84
                      A                      A                      A
 Frequencies --   3099.8977              3116.3941              3119.3187
 Red. masses --      1.1029                 1.1039                 1.0979
 Frc consts  --      6.2443                 6.3164                 6.2941
 IR Inten    --     26.8149                16.4015                14.3518

 - Thermochemistry -
 -------------------
 Temperature   298.150 Kelvin.  Pressure   1.00000 Atm.
 Atom     1 has atomic number  6 and mass  12.00000

 Molecular mass:   170.13068 amu.
 Principal axes and moments of inertia in atomic units:
                           1         2         3
     Eigenvalues --   842.794992999.428453099.37010
           X            1.00000   0.00030  -0.00008
           Y           -0.00031   0.99854  -0.05393
           Z            0.00007   0.05393   0.99854
 This molecule is an asymmetric top.
 Rotational symmetry number  1.
 Warning -- assumption of classical behavior for rotation
           may cause significant error
 Rotational temperatures (Kelvin)      0.10277     0.02888     0.02795
 Rotational constants (GHZ):           2.14138     0.60170     0.58229
 Zero-point vibrational energy     706264.0 (Joules/Mol)
                                  168.80116 (Kcal/Mol)
 Warning -- explicit consideration of  18 degrees of freedom as
           vibrations may cause significant error
 Vibrational temperatures:     54.48   127.51   242.14   286.97   317.08
          (Kelvin)            330.52   349.29   407.69   454.34   461.61
                              574.33   602.67   610.22   631.19   726.48
                              741.55   799.47   830.52   975.24  1038.51
                             1135.73  1176.48  1208.29  1253.59  1310.62
                             1314.49  1332.18  1370.89  1371.77  1393.70
                             1416.56  1439.69  1476.24  1493.44  1509.63
                             1522.40  1540.29  1615.56  1679.40  1733.72
                             1735.97  1749.10  1789.87  1801.19  1808.29
                             1832.19  1875.33  1899.76  1927.64  1928.65
                             1936.97  1964.48  1983.13  2008.55  2020.92
                             2057.71  2122.92  2127.87  2137.02  2143.02
                             2151.59  2154.25  2164.57  2172.60  2176.95
                             2178.17  4281.70  4290.58  4337.97  4350.45
                             4351.87  4359.38  4382.08  4402.05  4420.91
                             4423.33  4425.49  4425.99  4431.14  4433.72
                             4434.14  4460.06  4483.79  4488.00

 Zero-point correction=                           0.269002 (Hartree/Particle)
 Thermal correction to Energy=                    0.280659
 Thermal correction to Enthalpy=                  0.281603
 Thermal correction to Gibbs Free Energy=         0.232014
 Sum of electronic and zero-point Energies=           -542.230366
 Sum of electronic and thermal Energies=              -542.218708
 Sum of electronic and thermal Enthalpies=            -542.217764
 Sum of electronic and thermal Free Energies=         -542.267353

                     E (Thermal)             CV                S
                      KCal/Mol        Cal/Mol-Kelvin    Cal/Mol-Kelvin
 Total                  176.116             47.289            104.369
 Electronic               0.000              0.000              0.000
 Translational            0.889              2.981             41.302
 Rotational               0.889              2.981             30.439
 Vibrational            174.339             41.327             32.628
 Vibration     1          0.594              1.982              5.368
 Vibration     2          0.601              1.957              3.690
 Vibration     3          0.625              1.881              2.454
 Vibration     4          0.638              1.841              2.138
 Vibration     5          0.647              1.810              1.956
 Vibration     6          0.652              1.796              1.881
 Vibration     7          0.659              1.775              1.782
 Vibration     8          0.682              1.705              1.513
 Vibration     9          0.703              1.643              1.332
 Vibration    10          0.706              1.634              1.306
 Vibration    11          0.765              1.472              0.966
 Vibration    12          0.782              1.429              0.896
 Vibration    13          0.786              1.418              0.878
 Vibration    14          0.799              1.386              0.831
 Vibration    15          0.860              1.239              0.646
 Vibration    16          0.870              1.216              0.621
 Vibration    17          0.911              1.127              0.533
 Vibration    18          0.934              1.080              0.491

 Optimization completed.
    -- Stationary point found.
 Normal termination of Gaussian 09 at Tue Apr 23 13:28:05 2024.
