 Gaussian 09, Revision D.01,
 Gaussian 09:  ES64L-G09RevD.01 24-Apr-2013

 ---------------------------------------------------------------------
 # b3lyp/6-311+g(d,p) geom=connectivity pop=(hirshfeld,chelpg,mbs,npa)
 ---------------------------------------------------------------------

 --------
 Table9_6
 --------
 Symbolic Z-matrix:
 Charge =  0 Multiplicity = 1

                         Standard orientation:
 ---------------------------------------------------------------------
 Center     Atomic      Atomic             Coordinates (Angstroms)
 Number     Number       Type             X           Y           Z
 ---------------------------------------------------------------------
      1          6           0       -0.952960    1.080197    0.000257
      2          6           0       -0.941226   -0.344340   -0.000330
      3          6           0       -2.161361   -1.045669   -0.000418
      4          6           0       -3.328891   -0.310624    0.000095
      5          6           0       -3.336962    1.099064    0.000673
      6          6           0       -2.147930    1.808010    0.000772
      7          6           0        1.185703    0.399321   -0.000381
      8          6           0        0.427716   -0.750745   -0.000814
      9          1           0       -2.187544   -2.127816   -0.000883
     10          1           0       -4.284278    1.622140    0.001070
     11          1           0       -2.152682    2.891730    0.001274
     12          1           0        0.695820    2.449216    0.000911
     13          1           0        0.817027   -1.755799   -0.001428
     14          7           0        0.351543    1.501217    0.000278
     15          6           0        2.634398    0.626598   -0.000565
     16          8           0        3.130770    1.735859   -0.000069
     17          8           0        3.336067   -0.518713   -0.001268
     18          6           0        4.781511   -0.389580   -0.001144
     19          6           0        5.364774   -1.786971    0.002410
     20          1           0        5.078069    0.182914    0.880519
     21          1           0        5.078473    0.178422   -0.885583
     22          1           0        6.456359   -1.727096    0.002353
     23          1           0        5.052155   -2.340612    0.890489
     24          1           0        5.052327   -2.345139   -0.882893
     25         17           0       -4.879402   -1.152071   -0.000024
 ---------------------------------------------------------------------

 SCF Done:  E(RB3LYP) =  -1090.81778379     A.U. after   15 cycles

 The electronic state is 1-A.
 Alpha  occ. eigenvalues -- -101.55155 -19.18000 -19.12367 -14.37563 -10.31870
 Alpha  occ. eigenvalues --  -10.24115 -10.23932 -10.23061 -10.22927 -10.19751
 Alpha  occ. eigenvalues --  -10.19603 -10.19508 -10.19444 -10.18900 -10.17911
 Alpha  occ. eigenvalues --   -9.46608  -7.23066  -7.22087  -7.22067  -1.12189
 Alpha  occ. eigenvalues --   -1.03639  -1.00426  -0.89303  -0.83798  -0.81397
 Alpha  occ. eigenvalues --   -0.79319  -0.75224  -0.74611  -0.68324  -0.64202
 Alpha  occ. eigenvalues --   -0.62350  -0.60384  -0.58693  -0.56668  -0.52587
 Alpha  occ. eigenvalues --   -0.50951  -0.49671  -0.48287  -0.47106  -0.45882
 Alpha  occ. eigenvalues --   -0.45808  -0.45172  -0.43222  -0.42972  -0.41606
 Alpha  occ. eigenvalues --   -0.40823  -0.39476  -0.38800  -0.37504  -0.37110
 Alpha  occ. eigenvalues --   -0.36721  -0.32258  -0.32068  -0.31657  -0.30552
 Alpha  occ. eigenvalues --   -0.30007  -0.24157  -0.23309
 Alpha virt. eigenvalues --   -0.06897  -0.01518  -0.00512  -0.00037   0.00273
 Alpha virt. eigenvalues --    0.01315   0.01378   0.01980   0.02819   0.03171
 Alpha virt. eigenvalues --    0.03966   0.04552   0.05116   0.05429   0.06133

 Mulliken charges:
               1
     1  C   -0.575025
     2  C    0.256630
     3  C   -0.337504
     4  C    0.738885
     5  C   -0.659038
     6  C   -0.978331
     7  C   -0.019864
     8  C    0.480241
     9  H    0.139107
    10  H    0.149714
    11  H    0.120138
    12  H    0.307497
    13  H    0.131150
    14  N   -0.099259
    15  C    0.097786
    16  O   -0.291778
    17  O   -0.112237
    18  C    0.017024
    19  C   -0.526405
    20  H    0.161814
    21  H    0.161849
    22  H    0.148873
    23  H    0.148483
    24  H    0.148470
    25  Cl   0.391782
 Sum of Mulliken charges =   0.00000

 Dipole moment (field-independent basis, Debye):
    X=              2.4931    Y=              0.1119    Z=              0.0010  Tot=              2.4956
 Quadrupole moment (field-independent basis, Debye-Ang):
   XX=            -93.1258   YY=            -89.0367   ZZ=            -97.3878
   XY=            -12.8810   XZ=             -0.0020   YZ=              0.0070

 ESP charges:
               1
     1  C    0.222035
     2  C    0.195463
     3  C   -0.268523
     4  C    0.119516
     5  C   -0.092331
     6  C   -0.253510
     7  C   -0.086591
     8  C   -0.265970
     9  H    0.157598
    10  H    0.109024
    11  H    0.151116
    12  H    0.339583
    13  H    0.152340
    14  N   -0.389669
    15  C    0.837748
    16  O   -0.601298
    17  O   -0.511750
    18  C    0.409957
    19  C   -0.211548
    20  H   -0.013885
    21  H   -0.014027
    22  H    0.037152
    23  H    0.067914
    24  H    0.068064
    25  Cl  -0.158407
 Sum of ESP charges =   0.00000

 Summary of Natural Population Analysis:

                                       Natural Population
                Natural  -----------------------------------------------
    Atom  No    Charge         Core      Valence    Rydberg      Total
 -----------------------------------------------------------------------
      C    1    0.16767      1.99899     3.81331    0.02003     5.83233
      C    2   -0.08858      1.99901     4.07370    0.01587     6.08858
      C    3   -0.20330      1.99888     4.18671    0.01771     6.20330
      C    4   -0.05339      1.99861     4.03179    0.02300     6.05339
      C    5   -0.21753      1.99901     4.19903    0.01949     6.21753
      C    6   -0.21754      1.99907     4.20234    0.01613     6.21754
      C    7    0.06025      1.99900     3.91709    0.02367     5.93975
      C    8   -0.21355      1.99900     4.19940    0.01515     6.21355
      H    9    0.22611      0.00000     0.77201    0.00188     0.77389
      H   10    0.22384      0.00000     0.77452    0.00164     0.77616
      H   11    0.21613      0.00000     0.78201    0.00186     0.78387
      H   12    0.42692      0.00000     0.57060    0.00248     0.57308
      H   13    0.23323      0.00000     0.76498    0.00178     0.76677
      N   14   -0.52341      1.99926     5.50939    0.01476     7.52341
      C   15    0.77364      1.99924     3.18130    0.04582     5.22636
      O   16   -0.61484      1.99976     6.60301    0.01208     8.61484
      O   17   -0.55355      1.99971     6.53676    0.01708     8.55355
      C   18   -0.03732      1.99921     4.01892    0.01918     6.03732
      C   19   -0.59346      1.99936     4.58531    0.00880     6.59346
      H   20    0.18726      0.00000     0.81060    0.00214     0.81274
      H   21    0.18713      0.00000     0.81073    0.00213     0.81287
      H   22    0.20928      0.00000     0.78954    0.00118     0.79072
      H   23    0.20698      0.00000     0.79139    0.00163     0.79302
      H   24    0.20698      0.00000     0.79138    0.00163     0.79302
     Cl   25   -0.00896      9.99962     6.98946    0.01987    17.00896
 =======================================================================
   * Total *    0.00000     37.98773    77.70528    0.30699   116.00000

 Normal termination of Gaussian 09 at Fri Jul 23 17:40:52 2021.
