 Gaussian 09, Revision D.01,
 Gaussian 09:  ES64L-G09RevD.01 24-Apr-2013

 ----------------------------------------------------------------------
 # opt freq b3lyp/6-311+g(d,p) geom=connectivity pop=(hirshfeld,chelpg,
 mbs,npa)
 ----------------------------------------------------------------------

 -------------------
 Title Card Required
 -------------------
 Symbolic Z-matrix:
 Charge =  0 Multiplicity = 1

 SCF Done:  E(RB3LYP) =  -555.899466848     A.U. after   15 cycles
 SCF Done:  E(RB3LYP) =  -555.913553620     A.U. after   13 cycles
 SCF Done:  E(RB3LYP) =  -555.914533946     A.U. after   12 cycles
 SCF Done:  E(RB3LYP) =  -555.914992681     A.U. after   12 cycles
 SCF Done:  E(RB3LYP) =  -555.915839468     A.U. after   14 cycles
 SCF Done:  E(RB3LYP) =  -555.910564042     A.U. after   16 cycles
 SCF Done:  E(RB3LYP) =  -555.916318678     A.U. after   13 cycles
 SCF Done:  E(RB3LYP) =  -555.917064215     A.U. after   12 cycles
 SCF Done:  E(RB3LYP) =  -555.917721782     A.U. after   12 cycles
 SCF Done:  E(RB3LYP) =  -555.917794552     A.U. after   12 cycles
 SCF Done:  E(RB3LYP) =  -555.917818807     A.U. after   11 cycles
 SCF Done:  E(RB3LYP) =  -555.917820314     A.U. after   10 cycles
 SCF Done:  E(RB3LYP) =  -555.917820903     A.U. after    9 cycles
 SCF Done:  E(RB3LYP) =  -555.917821077     A.U. after    8 cycles
 Optimization completed.
    -- Stationary point found.
 Normal termination of Gaussian 09 at Mon Jan  9 17:48:13 2023.

 ----------------------------------------------------------------------
 #N Geom=AllCheck Guess=TCheck SCRF=Check GenChk RB3LYP/6-311+G(d,p) Fr
 eq
 ----------------------------------------------------------------------

 Structure from the checkpoint file:  "substitutedquinolines6_Marder.chk"
 -------------------
 Title Card Required
 -------------------
 Charge =  0 Multiplicity = 1

                         Standard orientation:
 ---------------------------------------------------------------------
 Center     Atomic      Atomic             Coordinates (Angstroms)
 Number     Number       Type             X           Y           Z
 ---------------------------------------------------------------------
      1          6           0        1.982762   -0.339121   -0.000191
      2          6           0        0.794178   -1.044715   -0.000064
      3          6           0       -0.441530   -0.367417   -0.000007
      4          6           0       -0.456372    1.062191   -0.000033
      5          6           0        0.774240    1.755403   -0.000227
      6          6           0        1.973698    1.078863   -0.000306
      7          1           0        0.803247   -2.127045    0.000021
      8          6           0       -1.721541    1.699732    0.000187
      9          1           0        0.769181    2.840661   -0.000333
     10          6           0       -2.859496    0.939133    0.000278
     11          6           0       -2.751053   -0.483832    0.000149
     12          1           0       -1.774368    2.784144    0.000288
     13          1           0       -3.840426    1.400762    0.000474
     14          7           0       -1.592413   -1.108064   -0.000014
     15          1           0        2.900195    1.636800   -0.000667
     16          6           0       -4.000550   -1.326988   -0.000140
     17          1           0       -4.615224   -1.114951    0.880758
     18          1           0       -4.614510   -1.115378   -0.881647
     19          1           0       -3.734348   -2.383154    0.000191
     20          8           0        3.126977   -1.082821   -0.000079
     21          6           0        4.384910   -0.420913    0.000382
     22          1           0        5.133479   -1.211502    0.000113
     23          1           0        4.514330    0.197689   -0.894157
     24          1           0        4.514038    0.196972    0.895518
 ---------------------------------------------------------------------

 SCF Done:  E(RB3LYP) =  -555.917821077     A.U. after    1 cycles

 The electronic state is 1-A.
 Alpha  occ. eigenvalues --  -19.16023 -14.30247 -10.24329 -10.23187 -10.21811
 Alpha  occ. eigenvalues --  -10.21158 -10.19357 -10.18880 -10.18713 -10.18517
 Alpha  occ. eigenvalues --  -10.17967 -10.16798 -10.16484  -1.07562  -0.94607
 Alpha  occ. eigenvalues --   -0.85670  -0.81074  -0.77512  -0.75942  -0.71424
 Alpha  occ. eigenvalues --   -0.70235  -0.63072  -0.61931  -0.60795  -0.54855
 Alpha  occ. eigenvalues --   -0.52321  -0.51133  -0.48873  -0.47875  -0.46093
 Alpha  occ. eigenvalues --   -0.44579  -0.43640  -0.43483  -0.42297  -0.40409
 Alpha  occ. eigenvalues --   -0.40187  -0.38446  -0.37958  -0.36618  -0.36481
 Alpha  occ. eigenvalues --   -0.34009  -0.32169  -0.29911  -0.25640  -0.24611
 Alpha  occ. eigenvalues --   -0.22286
 Alpha virt. eigenvalues --   -0.05704  -0.02014  -0.00236   0.00266   0.00619
 Alpha virt. eigenvalues --    0.01595   0.02725   0.02927   0.04221   0.04472
 Alpha virt. eigenvalues --    0.04815   0.04999   0.05288   0.06084   0.06611

 Mulliken charges:
               1
     1  C   -0.475854
     2  C   -0.668988
     3  C   -1.343344
     4  C    1.918238
     5  C   -0.277700
     6  C    0.345170
     7  H    0.130729
     8  C   -0.221711
     9  H    0.120677
    10  C   -0.411265
    11  C    0.196767
    12  H    0.122477
    13  H    0.127624
    14  N    0.077484
    15  H    0.123871
    16  C   -0.274582
    17  H    0.155091
    18  H    0.155149
    19  H    0.161810
    20  O   -0.177098
    21  C   -0.236439
    22  H    0.160836
    23  H    0.145498
    24  H    0.145560
 Sum of Mulliken charges =   0.00000

 Dipole moment (field-independent basis, Debye):
    X=              1.0258    Y=              2.8141    Z=              0.0003  Tot=              2.9952
 Quadrupole moment (field-independent basis, Debye-Ang):
   XX=            -57.7958   YY=            -75.6881   ZZ=            -80.4760
   XY=              0.5307   XZ=              0.0006   YZ=             -0.0008

  Exact polarizability: 229.286   2.457 137.789   0.007  -0.003  79.753
 Approx polarizability: 340.563  -0.405 237.035  -0.013   0.001 123.991

 ESP charges:
               1
     1  C    0.465968
     2  C   -0.462302
     3  C    0.550320
     4  C   -0.075424
     5  C   -0.150983
     6  C   -0.256132
     7  H    0.176003
     8  C   -0.014548
     9  H    0.115766
    10  C   -0.370649
    11  C    0.568259
    12  H    0.101164
    13  H    0.136046
    14  N   -0.695004
    15  H    0.136145
    16  C   -0.212285
    17  H    0.047366
    18  H    0.047351
    19  H    0.067929
    20  O   -0.405446
    21  C    0.174709
    22  H    0.046863
    23  H    0.004404
    24  H    0.004480
 Sum of ESP charges =   0.00000

 Summary of Natural Population Analysis:

                                       Natural Population
                Natural  -----------------------------------------------
    Atom  No    Charge         Core      Valence    Rydberg      Total
 -----------------------------------------------------------------------
      C    1    0.33023      1.99880     3.64813    0.02285     5.66977
      C    2   -0.23404      1.99899     4.21639    0.01866     6.23404
      C    3    0.18609      1.99896     3.79153    0.02342     5.81391
      C    4   -0.11762      1.99896     4.10307    0.01558     6.11762
      C    5   -0.15814      1.99911     4.14197    0.01706     6.15814
      C    6   -0.27707      1.99907     4.26315    0.01485     6.27707
      H    7    0.22906      0.00000     0.76579    0.00515     0.77094
      C    8   -0.13022      1.99908     4.11379    0.01735     6.13022
      H    9    0.20305      0.00000     0.79367    0.00328     0.79695
      C   10   -0.25756      1.99905     4.24186    0.01666     6.25756
      C   11    0.24259      1.99916     3.73253    0.02571     5.75741
      H   12    0.20577      0.00000     0.79241    0.00182     0.79423
      H   13    0.20960      0.00000     0.78881    0.00159     0.79040
      N   14   -0.47335      1.99931     5.45213    0.02192     7.47335
      H   15    0.21288      0.00000     0.78530    0.00181     0.78712
      C   16   -0.60519      1.99930     4.59613    0.00976     6.60519
      H   17    0.21124      0.00000     0.78740    0.00137     0.78876
      H   18    0.21126      0.00000     0.78737    0.00137     0.78874
      H   19    0.22501      0.00000     0.77287    0.00212     0.77499
      O   20   -0.53844      1.99971     6.52146    0.01727     8.53844
      C   21   -0.20820      1.99926     4.19327    0.01567     6.20820
      H   22    0.19370      0.00000     0.80522    0.00108     0.80630
      H   23    0.16966      0.00000     0.82814    0.00221     0.83034
      H   24    0.16968      0.00000     0.82811    0.00221     0.83032
 =======================================================================
   * Total *    0.00000     25.98875    65.75049    0.26076    92.00000

                      1                      2                      3
                      A                      A                      A
 Frequencies --     54.4991                62.0988               119.7134
 Red. masses --      1.2517                 2.0817                 3.2972
 Frc consts  --      0.0022                 0.0047                 0.0278
 IR Inten    --      2.5660                 3.3127                 0.2288

                      4                      5                      6
                      A                      A                      A
 Frequencies --    125.3697               188.7055               226.1123
 Red. masses --      4.5158                 3.5579                 1.2480
 Frc consts  --      0.0418                 0.0746                 0.0376
 IR Inten    --      0.2584                 2.5068                 0.0150

                      7                      8                      9
                      A                      A                      A
 Frequencies --    284.7512               286.1771               303.0399
 Red. masses --      2.9441                 3.0118                 4.4721
 Frc consts  --      0.1406                 0.1453                 0.2420
 IR Inten    --      0.0102                 0.1221                 6.0906

                     10                     11                     12
                      A                      A                      A
 Frequencies --    369.7713               428.2231               439.8149
 Red. masses --      5.1378                 3.5083                 3.6795
 Frc consts  --      0.4139                 0.3790                 0.4193
 IR Inten    --      0.8613                 0.0001                 8.8864

                     13                     14                     15
                      A                      A                      A
 Frequencies --    471.3463               483.0319               562.1412
 Red. masses --      5.3554                 2.8732                 4.3774
 Frc consts  --      0.7010                 0.3950                 0.8150
 IR Inten    --      0.8728                 5.5973                 9.0065

                     16                     17                     18
                      A                      A                      A
 Frequencies --    600.9586               640.2860               669.9520
 Red. masses --      3.7247                 7.9388                 2.9033
 Frc consts  --      0.7926                 1.9176                 0.7678
 IR Inten    --      2.7772                 4.0080                 2.0004

                     19                     20                     21
                      A                      A                      A
 Frequencies --    694.2890               772.6919               774.4488
 Red. masses --      5.2636                 5.2833                 2.9967
 Frc consts  --      1.4949                 1.8585                 1.0589
 IR Inten    --      5.5286                 7.3096                 6.1165

                     22                     23                     24
                      A                      A                      A
 Frequencies --    785.9447               796.3088               839.2674
 Red. masses --      5.6523                 1.5223                 1.5746
 Frc consts  --      2.0571                 0.5687                 0.6535
 IR Inten    --      1.5033                 0.1048                45.8948

                     25                     26                     27
                      A                      A                      A
 Frequencies --    890.3780               948.8040               952.8910
 Red. masses --      1.5308                 2.3639                 1.2986
 Frc consts  --      0.7150                 1.2538                 0.6947
 IR Inten    --     31.2867                 1.9104                 2.0524

                     28                     29                     30
                      A                      A                      A
 Frequencies --    962.5245               987.7713              1027.4358
 Red. masses --      4.4900                 1.3182                 1.9214
 Frc consts  --      2.4509                 0.7578                 1.1950
 IR Inten    --      3.3471                 1.4301                27.5357

                     31                     32                     33
                      A                      A                      A
 Frequencies --   1055.0375              1056.3381              1143.9336
 Red. masses --      1.5824                 2.9302                 1.6075
 Frc consts  --      1.0378                 1.9264                 1.2394
 IR Inten    --      2.4058                40.2013                16.3289

                     34                     35                     36
                      A                      A                      A
 Frequencies --   1167.9325              1172.8271              1192.1110
 Red. masses --      1.2704                 1.2555                 1.6442
 Frc consts  --      1.0210                 1.0175                 1.3767
 IR Inten    --      0.7212                24.0419                78.9657

                     37                     38                     39
                      A                      A                      A
 Frequencies --   1210.0063              1237.1604              1261.9029
 Red. masses --      2.1312                 2.0272                 2.1190
 Frc consts  --      1.8384                 1.8281                 1.9880
 IR Inten    --     67.9386                18.5087                82.1082

                     40                     41                     42
                      A                      A                      A
 Frequencies --   1288.2509              1327.9377              1373.2617
 Red. masses --      2.3793                 3.4615                 3.5819
 Frc consts  --      2.3265                 3.5964                 3.9799
 IR Inten    --    205.9688                 7.6048                46.3692

                     43                     44                     45
                      A                      A                      A
 Frequencies --   1390.2045              1405.8060              1451.2244
 Red. masses --      7.2146                 1.3111                 2.2000
 Frc consts  --      8.2152                 1.5267                 2.7298
 IR Inten    --      2.6089                 6.5694                38.9185

                     46                     47                     48
                      A                      A                      A
 Frequencies --   1472.1748              1484.8679              1485.3076
 Red. masses --      1.2983                 1.4307                 1.0443
 Frc consts  --      1.6578                 1.8586                 1.3574
 IR Inten    --      0.5968                 3.5173                 8.1242

                     49                     50                     51
                      A                      A                      A
 Frequencies --   1493.1184              1495.0825              1504.4353
 Red. masses --      2.0717                 1.0458                 1.0702
 Frc consts  --      2.7212                 1.3773                 1.4271
 IR Inten    --      3.9984                 9.3275                48.5935

                     52                     53                     54
                      A                      A                      A
 Frequencies --   1545.8759              1591.3102              1644.4104
 Red. masses --      3.2303                 7.5462                 6.2542
 Frc consts  --      4.5482                11.2587                 9.9643
 IR Inten    --    160.1425                26.5553                41.9294

                     55                     56                     57
                      A                      A                      A
 Frequencies --   1660.2329              3005.2647              3024.1745
 Red. masses --      6.6286                 1.0346                 1.0389
 Frc consts  --     10.7650                 5.5056                 5.5982
 IR Inten    --    227.0814                69.5671                22.4591

                     58                     59                     60
                      A                      A                      A
 Frequencies --   3064.7405              3071.7900              3133.4539
 Red. masses --      1.1063                 1.0996                 1.0991
 Frc consts  --      6.1223                 6.1130                 6.3583
 IR Inten    --     37.9267                15.7327                 7.5327

                     61                     62                     63
                      A                      A                      A
 Frequencies --   3133.9709              3157.2374              3163.1533
 Red. masses --      1.0989                 1.0879                 1.0892
 Frc consts  --      6.3594                 6.3892                 6.4210
 IR Inten    --     23.6412                 3.8571                13.0956

                     64                     65                     66
                      A                      A                      A
 Frequencies --   3180.2477              3206.5909              3208.5341
 Red. masses --      1.0954                 1.0916                 1.0914
 Frc consts  --      6.5277                 6.6128                 6.6198
 IR Inten    --     17.4997                 2.4401                 7.3018

 - Thermochemistry -
 -------------------
 Temperature   298.150 Kelvin.  Pressure   1.00000 Atm.
 Atom     1 has atomic number  6 and mass  12.00000

 Molecular mass:   173.08406 amu.
 Principal axes and moments of inertia in atomic units:
                           1         2         3
     Eigenvalues --   806.650903958.078274742.02294
           X            0.99994   0.01083   0.00000
           Y           -0.01083   0.99994   0.00000
           Z            0.00000   0.00000   1.00000
 This molecule is an asymmetric top.
 Rotational symmetry number  1.
 Warning -- assumption of classical behavior for rotation
           may cause significant error
 Rotational temperatures (Kelvin)      0.10737     0.02188     0.01827
 Rotational constants (GHZ):           2.23733     0.45596     0.38058
 Zero-point vibrational energy     509660.9 (Joules/Mol)
                                  121.81189 (Kcal/Mol)
 Warning -- explicit consideration of  16 degrees of freedom as
           vibrations may cause significant error
 Vibrational temperatures:     78.41    89.35   172.24   180.38   271.50
          (Kelvin)            325.32   409.69   411.74   436.01   532.02
                              616.12   632.79   678.16   694.97   808.79
                              864.64   921.23   963.91   998.93  1111.73
                             1114.26  1130.80  1145.71  1207.52  1281.05
                             1365.12  1371.00  1384.86  1421.18  1478.25
                             1517.96  1519.83  1645.86  1680.39  1687.43
                             1715.18  1740.93  1780.00  1815.59  1853.50
                             1910.60  1975.81  2000.19  2022.64  2087.99
                             2118.13  2136.39  2137.02  2148.26  2151.09
                             2164.54  2224.17  2289.54  2365.94  2388.70
                             4323.90  4351.11  4409.47  4419.62  4508.34
                             4509.08  4542.55  4551.07  4575.66  4613.56
                             4616.36

 Zero-point correction=                           0.194120 (Hartree/Particle)
 Thermal correction to Energy=                    0.205400
 Thermal correction to Enthalpy=                  0.206344
 Thermal correction to Gibbs Free Energy=         0.156562
 Sum of electronic and zero-point Energies=           -555.723701
 Sum of electronic and thermal Energies=              -555.712421
 Sum of electronic and thermal Enthalpies=            -555.711477
 Sum of electronic and thermal Free Energies=         -555.761259

                     E (Thermal)             CV                S
                      KCal/Mol        Cal/Mol-Kelvin    Cal/Mol-Kelvin
 Total                  128.891             43.566            104.777
 Electronic               0.000              0.000              0.000
 Translational            0.889              2.981             41.353
 Rotational               0.889              2.981             31.094
 Vibrational            127.113             37.605             32.330
 Vibration     1          0.596              1.976              4.647
 Vibration     2          0.597              1.972              4.389
 Vibration     3          0.609              1.933              3.105
 Vibration     4          0.610              1.928              3.016
 Vibration     5          0.633              1.855              2.241
 Vibration     6          0.650              1.801              1.910
 Vibration     7          0.683              1.702              1.505
 Vibration     8          0.684              1.699              1.496
 Vibration     9          0.694              1.668              1.400
 Vibration    10          0.742              1.534              1.081
 Vibration    11          0.790              1.409              0.864
 Vibration    12          0.800              1.383              0.827
 Vibration    13          0.828              1.314              0.734
 Vibration    14          0.839              1.288              0.702
 Vibration    15          0.918              1.113              0.520
 Vibration    16          0.959              1.030              0.448

 Optimization completed.
    -- Stationary point found.
 Normal termination of Gaussian 09 at Mon Jan  9 17:53:27 2023.
