 Gaussian 09, Revision D.01,
 Gaussian 09:  ES64L-G09RevD.01 24-Apr-2013

 ----------------------------------------------------------------------
 # opt freq=noraman b3lyp/6-311+g(d,p) pop=(npa,hirshfeld,chelpg,mbs) g
 eom=connectivity
 ----------------------------------------------------------------------

 -------------------
 Title Card Required
 -------------------
 Symbolic Z-matrix:
 Charge =  0 Multiplicity = 1

 SCF Done:  E(RB3LYP) =  -1321.26240263     A.U. after   17 cycles
 SCF Done:  E(RB3LYP) =  -1321.27446523     A.U. after   14 cycles
 SCF Done:  E(RB3LYP) =  -1321.27477721     A.U. after   13 cycles
 SCF Done:  E(RB3LYP) =  -1321.27479391     A.U. after   11 cycles
 Optimization completed.
    -- Stationary point found.
 Normal termination of Gaussian 09 at Tue Apr 23 12:18:06 2024.

 ----------------------------------------------------------------------
 #N Geom=AllCheck Guess=TCheck SCRF=Check GenChk RB3LYP/6-311+G(d,p) Fr
 eq
 ----------------------------------------------------------------------

 Structure from the checkpoint file:  "44.chk"
 -------------------
 Title Card Required
 -------------------
 Charge =  0 Multiplicity = 1

                         Standard orientation:
 ---------------------------------------------------------------------
 Center     Atomic      Atomic             Coordinates (Angstroms)
 Number     Number       Type             X           Y           Z
 ---------------------------------------------------------------------
      1          6           0       -2.187858   -0.178810    0.000004
      2          6           0       -1.522297    1.019223   -0.000006
      3          6           0       -0.104133    1.036589    0.000004
      4          6           0        0.609078   -0.205969    0.000001
      5          6           0       -0.123952   -1.418929   -0.000002
      6          6           0       -1.496557   -1.411097    0.000008
      7          1           0       -2.045567    1.965897   -0.000011
      8          6           0        2.025555   -0.113852   -0.000005
      9          1           0        0.409223   -2.360511   -0.000003
     10          1           0       -2.055756   -2.337719    0.000012
     11          6           0        2.640721    1.111476    0.000000
     12          6           0        1.826194    2.267589    0.000012
     13          1           0        3.718928    1.198966   -0.000002
     14          1           0        2.300653    3.245794   -0.000005
     15          7           0        0.512776    2.251096   -0.000005
     16         17           0        3.006234   -1.565756   -0.000001
     17         17           0       -3.942553   -0.205269   -0.000001
 ---------------------------------------------------------------------

 SCF Done:  E(RB3LYP) =  -1321.27479391     A.U. after    1 cycles

 The electronic state is 1-A.
 Alpha  occ. eigenvalues -- -101.57731-101.56558 -14.33034 -10.27185 -10.25813
 Alpha  occ. eigenvalues --  -10.24045 -10.23378 -10.22133 -10.20897 -10.20861
 Alpha  occ. eigenvalues --  -10.20796 -10.20137  -9.49198  -9.48016  -7.25655
 Alpha  occ. eigenvalues --   -7.24690  -7.24636  -7.24477  -7.23503  -7.23458
 Alpha  occ. eigenvalues --   -0.97492  -0.90845  -0.90446  -0.85098  -0.80629
 Alpha  occ. eigenvalues --   -0.77677  -0.76178  -0.67007  -0.65287  -0.62225
 Alpha  occ. eigenvalues --   -0.55422  -0.54317  -0.53579  -0.48560  -0.47021
 Alpha  occ. eigenvalues --   -0.46616  -0.44953  -0.44687  -0.43796  -0.40158
 Alpha  occ. eigenvalues --   -0.39705  -0.39192  -0.37937  -0.34272  -0.34012
 Alpha  occ. eigenvalues --   -0.32822  -0.30734  -0.28374  -0.27383  -0.25649
 Alpha virt. eigenvalues --   -0.08536  -0.05062  -0.01611  -0.00759  -0.00331
 Alpha virt. eigenvalues --    0.00521   0.01218   0.02284   0.03114   0.03895
 Alpha virt. eigenvalues --    0.03899   0.04611   0.05127   0.06502   0.06919

 Mulliken charges:
               1
     1  C    0.430053
     2  C   -0.351033
     3  C   -1.102479
     4  C    1.216922
     5  C   -1.025813
     6  C   -0.671258
     7  H    0.154651
     8  C    0.206121
     9  H    0.162434
    10  H    0.153120
    11  C   -0.432061
    12  C    0.060601
    13  H    0.152542
    14  H    0.138604
    15  N    0.019770
    16  Cl   0.469326
    17  Cl   0.418498
 Sum of Mulliken charges =   0.00000

 Dipole moment (field-independent basis, Debye):
    X=              1.7148    Y=             -0.7715    Z=              0.0000  Tot=              1.8804
 Quadrupole moment (field-independent basis, Debye-Ang):
   XX=            -81.5679   YY=            -80.6454   ZZ=            -85.7504
   XY=              5.2234   XZ=              0.0000   YZ=              0.0000

  Exact polarizability: 204.005  11.111 147.267  -0.006   0.004  69.154
 Approx polarizability: 315.285  21.645 261.642   0.000   0.000 108.247

 ESP charges:
               1
     1  C    0.110711
     2  C   -0.237728
     3  C    0.506054
     4  C   -0.054535
     5  C   -0.177041
     6  C   -0.068510
     7  H    0.143326
     8  C    0.166370
     9  H    0.131814
    10  H    0.106482
    11  C   -0.276822
    12  C    0.363129
    13  H    0.126509
    14  H    0.038358
    15  N   -0.644639
    16  Cl  -0.108815
    17  Cl  -0.124664
 Sum of ESP charges =   0.00000

 Summary of Natural Population Analysis:

                                       Natural Population
                Natural  -----------------------------------------------
    Atom  No    Charge         Core      Valence    Rydberg      Total
 -----------------------------------------------------------------------
      C    1   -0.02888      1.99859     4.00695    0.02335     6.02888
      C    2   -0.20956      1.99887     4.19014    0.02055     6.20956
      C    3    0.18958      1.99895     3.78627    0.02519     5.81042
      C    4   -0.12398      1.99882     4.10886    0.01629     6.12398
      C    5   -0.16371      1.99909     4.14734    0.01728     6.16371
      C    6   -0.21124      1.99899     4.19312    0.01913     6.21124
      H    7    0.24057      0.00000     0.75688    0.00256     0.75943
      C    8    0.01951      1.99851     3.95783    0.02415     5.98049
      H    9    0.22762      0.00000     0.77042    0.00196     0.77238
      H   10    0.22731      0.00000     0.77105    0.00165     0.77269
      C   11   -0.27060      1.99894     4.25332    0.01835     6.27060
      C   12    0.08605      1.99924     3.88653    0.02818     5.91395
      H   13    0.23092      0.00000     0.76727    0.00181     0.76908
      H   14    0.19309      0.00000     0.80544    0.00146     0.80691
      N   15   -0.44378      1.99938     5.42205    0.02236     7.44378
     Cl   16    0.02288      9.99961     6.95801    0.01951    16.97712
     Cl   17    0.01423      9.99961     6.96610    0.02007    16.98577
 =======================================================================
   * Total *    0.00000     39.98859    59.74757    0.26384   100.00000

                      1                      2                      3
                      A                      A                      A
 Frequencies --     79.5296               132.7362               169.8723
 Red. masses --      8.5791                 5.1001                18.7171
 Frc consts  --      0.0320                 0.0529                 0.3182
 IR Inten    --      0.0948                 2.4598                 0.0603

                      4                      5                      6
                      A                      A                      A
 Frequencies --    234.5833               259.4742               266.3731
 Red. masses --      5.5431                11.1512                 5.9432
 Frc consts  --      0.1797                 0.4423                 0.2485
 IR Inten    --      0.1001                 0.2651                 1.2882

                      7                      8                      9
                      A                      A                      A
 Frequencies --    376.8596               397.4099               431.9671
 Red. masses --     10.2466                13.3098                 3.1889
 Frc consts  --      0.8574                 1.2385                 0.3506
 IR Inten    --      5.0195                 5.2531                 8.2543

                     10                     11                     12
                      A                      A                      A
 Frequencies --    475.6689               515.2838               560.4530
 Red. masses --      5.1394                 3.3809                 7.4418
 Frc consts  --      0.6851                 0.5289                 1.3772
 IR Inten    --      4.3756                 0.6413                 1.4184

                     13                     14                     15
                      A                      A                      A
 Frequencies --    592.1718               629.1038               650.4375
 Red. masses --      5.6157                 7.8440                 3.9927
 Frc consts  --      1.1602                 1.8291                 0.9952
 IR Inten    --      0.1879                22.9864                 6.3221

                     16                     17                     18
                      A                      A                      A
 Frequencies --    690.3645               778.4448               826.2464
 Red. masses --      7.2804                 2.8545                 6.3148
 Frc consts  --      2.0444                 1.0191                 2.5400
 IR Inten    --     17.4791                 2.9687                36.3559

                     19                     20                     21
                      A                      A                      A
 Frequencies --    831.4080               849.9353               892.4515
 Red. masses --      1.7886                 1.2468                 6.1841
 Frc consts  --      0.7284                 0.5307                 2.9020
 IR Inten    --     18.8580                31.4594                43.3263

                     22                     23                     24
                      A                      A                      A
 Frequencies --    904.0518               978.9453               983.0128
 Red. masses --      1.5067                 1.3899                 6.4610
 Frc consts  --      0.7255                 0.7848                 3.6785
 IR Inten    --     21.6638                 0.0679                47.1842

                     25                     26                     27
                      A                      A                      A
 Frequencies --    984.6095              1081.4081              1087.2656
 Red. masses --      1.3283                 2.0478                 2.3908
 Frc consts  --      0.7587                 1.4110                 1.6652
 IR Inten    --      0.9489                 0.3287                54.0051

                     28                     29                     30
                      A                      A                      A
 Frequencies --   1170.9468              1213.3465              1227.7474
 Red. masses --      1.4802                 2.1246                 2.6730
 Frc consts  --      1.1957                 1.8429                 2.3739
 IR Inten    --      3.3408                18.0936                 4.1962

                     31                     32                     33
                      A                      A                      A
 Frequencies --   1268.8438              1325.5223              1360.9300
 Red. masses --      1.5201                 3.7184                 3.1274
 Frc consts  --      1.4419                 3.8493                 3.4128
 IR Inten    --      1.6938                26.9754                14.5108

                     34                     35                     36
                      A                      A                      A
 Frequencies --   1394.5097              1439.2827              1470.6886
 Red. masses --      2.7960                 2.8172                 2.8703
 Frc consts  --      3.2036                 3.4384                 3.6578
 IR Inten    --     19.7764                46.2428                 4.1322

                     37                     38                     39
                      A                      A                      A
 Frequencies --   1515.4418              1584.7782              1622.3634
 Red. masses --      3.3670                 7.5965                 6.6514
 Frc consts  --      4.5559                11.2408                10.3148
 IR Inten    --     56.0116                85.6267                22.6650

                     40                     41                     42
                      A                      A                      A
 Frequencies --   1642.3376              3145.7376              3197.0535
 Red. masses --      6.7519                 1.0900                 1.0879
 Frc consts  --     10.7300                 6.3551                 6.5513
 IR Inten    --     89.9701                20.0499                 0.0237

                     43                     44                     45
                      A                      A                      A
 Frequencies --   3210.0007              3211.3387              3215.6352
 Red. masses --      1.0938                 1.0952                 1.0927
 Frc consts  --      6.6403                 6.6543                 6.6573
 IR Inten    --      0.7123                 0.7768                 0.9460

 - Thermochemistry -
 -------------------
 Temperature   298.150 Kelvin.  Pressure   1.00000 Atm.
 Atom     1 has atomic number  6 and mass  12.00000

 Molecular mass:   196.97990 amu.
 Principal axes and moments of inertia in atomic units:
                           1         2         3
     Eigenvalues --  1199.504634218.261345417.76597
           X            0.99983   0.01832   0.00000
           Y           -0.01832   0.99983   0.00000
           Z            0.00000   0.00000   1.00000
 This molecule is an asymmetric top.
 Rotational symmetry number  1.
 Warning -- assumption of classical behavior for rotation
           may cause significant error
 Rotational temperatures (Kelvin)      0.07221     0.02053     0.01599
 Rotational constants (GHZ):           1.50457     0.42784     0.33312
 Zero-point vibrational energy     304309.5 (Joules/Mol)
                                   72.73171 (Kcal/Mol)
 Warning -- explicit consideration of  13 degrees of freedom as
           vibrations may cause significant error
 Vibrational temperatures:    114.43   190.98   244.41   337.51   373.33
          (Kelvin)            383.25   542.22   571.78   621.50   684.38
                              741.38   806.37   852.00   905.14   935.83
                              993.28  1120.01  1188.78  1196.21  1222.87
                             1284.04  1300.73  1408.48  1414.33  1416.63
                             1555.90  1564.33  1684.73  1745.73  1766.45
                             1825.58  1907.13  1958.07  2006.39  2070.80
                             2115.99  2180.38  2280.14  2334.22  2362.95
                             4526.01  4599.84  4618.47  4620.39  4626.58

 Zero-point correction=                           0.115905 (Hartree/Particle)
 Thermal correction to Energy=                    0.125050
 Thermal correction to Enthalpy=                  0.125994
 Thermal correction to Gibbs Free Energy=         0.080451
 Sum of electronic and zero-point Energies=          -1321.158889
 Sum of electronic and thermal Energies=             -1321.149744
 Sum of electronic and thermal Enthalpies=           -1321.148800
 Sum of electronic and thermal Free Energies=        -1321.194343

                     E (Thermal)             CV                S
                      KCal/Mol        Cal/Mol-Kelvin    Cal/Mol-Kelvin
 Total                   78.470             35.606             95.853
 Electronic               0.000              0.000              0.000
 Translational            0.889              2.981             41.739
 Rotational               0.889              2.981             31.683
 Vibrational             76.692             29.644             22.431
 Vibration     1          0.600              1.963              3.902
 Vibration     2          0.613              1.921              2.906
 Vibration     3          0.625              1.880              2.437
 Vibration     4          0.654              1.788              1.844
 Vibration     5          0.668              1.747              1.665
 Vibration     6          0.672              1.735              1.620
 Vibration     7          0.747              1.519              1.052
 Vibration     8          0.764              1.476              0.972
 Vibration     9          0.793              1.401              0.852
 Vibration    10          0.832              1.304              0.722
 Vibration    11          0.870              1.216              0.621
 Vibration    12          0.916              1.117              0.523
 Vibration    13          0.950              1.048              0.463

 Optimization completed.
    -- Stationary point found.
 Normal termination of Gaussian 09 at Tue Apr 23 12:20:47 2024.
