 Gaussian 09, Revision D.01,
 Gaussian 09:  ES64L-G09RevD.01 24-Apr-2013

 ----------------------------------------------------------------------
 # opt freq b3lyp/6-311+g(d,p) geom=connectivity pop=(hirshfeld,chelpg,
 mbs,npa)
 ----------------------------------------------------------------------

 -------------------
 Title Card Required
 -------------------
 Symbolic Z-matrix:
 Charge =  0 Multiplicity = 1

 SCF Done:  E(RB3LYP) =  -533.611227140     A.U. after   16 cycles
 SCF Done:  E(RB3LYP) =  -533.627574482     A.U. after   14 cycles
 SCF Done:  E(RB3LYP) =  -533.628176286     A.U. after   12 cycles
 SCF Done:  E(RB3LYP) =  -533.628210832     A.U. after   11 cycles
 SCF Done:  E(RB3LYP) =  -533.628212281     A.U. after   10 cycles
 SCF Done:  E(RB3LYP) =  -533.628212383     A.U. after   10 cycles
 Optimization completed.
    -- Stationary point found.
 Normal termination of Gaussian 09 at Mon Jan  9 17:43:56 2023.

 ----------------------------------------------------------------------
 #N Geom=AllCheck Guess=TCheck SCRF=Check GenChk RB3LYP/6-311+G(d,p) Fr
 eq
 ----------------------------------------------------------------------

 Structure from the checkpoint file:  "substitutedquinolines7_Marder.chk"
 -------------------
 Title Card Required
 -------------------
 Charge =  0 Multiplicity = 1

                         Standard orientation:
 ---------------------------------------------------------------------
 Center     Atomic      Atomic             Coordinates (Angstroms)
 Number     Number       Type             X           Y           Z
 ---------------------------------------------------------------------
      1          6           0        2.177229   -0.147763    0.000000
      2          6           0        1.035227   -0.928239   -0.000003
      3          6           0       -0.242156   -0.321182   -0.000003
      4          6           0       -0.333472    1.102013    0.000000
      5          6           0        0.853781    1.876565    0.000003
      6          6           0        2.084964    1.272266    0.000004
      7          1           0        1.091309   -2.009270   -0.000006
      8          6           0       -1.635633    1.663548   -0.000001
      9          1           0        0.778413    2.958693    0.000006
     10          6           0       -2.723519    0.833962   -0.000005
     11          6           0       -2.535984   -0.581346   -0.000006
     12          1           0       -1.754667    2.742153    0.000000
     13          1           0       -3.729951    1.237117   -0.000008
     14          7           0       -1.340213   -1.131938   -0.000006
     15          1           0        2.993331    1.861353    0.000006
     16          6           0       -3.732768   -1.495142    0.000007
     17          1           0       -4.357589   -1.318431    0.881219
     18          1           0       -4.357782   -1.318223   -0.881024
     19          1           0       -3.406623   -2.534106   -0.000142
     20          6           0        3.469091   -0.765060    0.000000
     21          7           0        4.517784   -1.250494    0.000001
 ---------------------------------------------------------------------

 SCF Done:  E(RB3LYP) =  -533.628212383     A.U. after    1 cycles

 The electronic state is 1-A.
 Alpha  occ. eigenvalues --  -14.32721 -14.31997 -10.24046 -10.23599 -10.23536
 Alpha  occ. eigenvalues --  -10.21657 -10.21628 -10.21545 -10.21045 -10.20879
 Alpha  occ. eigenvalues --  -10.20839 -10.20520 -10.18142  -0.97147  -0.92095
 Alpha  occ. eigenvalues --   -0.88463  -0.83716  -0.80294  -0.77806  -0.73449
 Alpha  occ. eigenvalues --   -0.68258  -0.64257  -0.63293  -0.59133  -0.54488
 Alpha  occ. eigenvalues --   -0.52519  -0.50384  -0.46987  -0.46487  -0.45593
 Alpha  occ. eigenvalues --   -0.45534  -0.42588  -0.42507  -0.39956  -0.39614
 Alpha  occ. eigenvalues --   -0.38975  -0.38898  -0.36996  -0.34577  -0.34534
 Alpha  occ. eigenvalues --   -0.32923  -0.27998  -0.27261  -0.26256
 Alpha virt. eigenvalues --   -0.08845  -0.05858  -0.02253  -0.00929   0.00264
 Alpha virt. eigenvalues --    0.00977   0.01843   0.02232   0.02539   0.03122
 Alpha virt. eigenvalues --    0.03951   0.03994   0.05057   0.05077   0.05653

 Mulliken charges:
               1
     1  C    1.595023
     2  C   -0.200814
     3  C   -1.734094
     4  C    1.867521
     5  C   -0.234209
     6  C   -0.097361
     7  H    0.143435
     8  C   -0.449481
     9  H    0.129769
    10  C   -0.086991
    11  C    0.063119
    12  H    0.131629
    13  H    0.135992
    14  N    0.094128
    15  H    0.142603
    16  C   -0.375937
    17  H    0.161025
    18  H    0.161008
    19  H    0.166685
    20  C   -1.431128
    21  N   -0.181921
 Sum of Mulliken charges =   0.00000

 Dipole moment (field-independent basis, Debye):
    X=             -5.4149    Y=              3.6473    Z=              0.0000  Tot=              6.5287
 Quadrupole moment (field-independent basis, Debye-Ang):
   XX=            -87.5423   YY=            -71.6143   ZZ=            -78.1262
   XY=              7.6248   XZ=             -0.0001   YZ=              0.0000

  Exact polarizability: 233.426  -4.673 136.758   0.000   0.000  72.743
 Approx polarizability: 367.006 -12.972 233.991   0.000   0.000 113.666

 ESP charges:
               1
     1  C    0.025789
     2  C   -0.254153
     3  C    0.501166
     4  C   -0.023916
     5  C   -0.148152
     6  C   -0.132091
     7  H    0.151553
     8  C   -0.015522
     9  H    0.118169
    10  C   -0.352845
    11  C    0.583408
    12  H    0.104542
    13  H    0.143543
    14  N   -0.699482
    15  H    0.120319
    16  C   -0.203833
    17  H    0.048023
    18  H    0.048007
    19  H    0.072266
    20  C    0.404802
    21  N   -0.491591
 Sum of ESP charges =   0.00000

 Summary of Natural Population Analysis:

                                       Natural Population
                Natural  -----------------------------------------------
    Atom  No    Charge         Core      Valence    Rydberg      Total
 -----------------------------------------------------------------------
      C    1   -0.17404      1.99887     4.15711    0.01806     6.17404
      C    2   -0.12441      1.99901     4.10826    0.01714     6.12441
      C    3    0.16891      1.99894     3.80864    0.02351     5.83109
      C    4   -0.08541      1.99897     4.07046    0.01598     6.08541
      C    5   -0.17020      1.99909     4.15403    0.01708     6.17020
      C    6   -0.16359      1.99910     4.14837    0.01613     6.16359
      H    7    0.23488      0.00000     0.76311    0.00201     0.76512
      C    8   -0.13626      1.99908     4.11941    0.01777     6.13626
      H    9    0.21280      0.00000     0.78532    0.00188     0.78720
      C   10   -0.22926      1.99905     4.21416    0.01605     6.22926
      C   11    0.24506      1.99916     3.73031    0.02547     5.75494
      H   12    0.21175      0.00000     0.78633    0.00192     0.78825
      H   13    0.21436      0.00000     0.78413    0.00151     0.78564
      N   14   -0.45887      1.99931     5.43794    0.02161     7.45887
      H   15    0.22336      0.00000     0.77534    0.00130     0.77664
      C   16   -0.60738      1.99930     4.59821    0.00988     6.60738
      H   17    0.21539      0.00000     0.78329    0.00131     0.78461
      H   18    0.21539      0.00000     0.78330    0.00131     0.78461
      H   19    0.22818      0.00000     0.76984    0.00198     0.77182
      C   20    0.28944      1.99924     3.67676    0.03455     5.71056
      N   21   -0.31010      1.99958     5.28991    0.02060     7.31010
 =======================================================================
   * Total *    0.00000     25.98871    61.74423    0.26706    88.00000

                      1                      2                      3
                      A                      A                      A
 Frequencies --     60.3341                87.8363               118.5034
 Red. masses --      1.0723                 5.9727                 3.2241
 Frc consts  --      0.0023                 0.0271                 0.0267
 IR Inten    --      0.2114                 0.1642                 0.8598

                      4                      5                      6
                      A                      A                      A
 Frequencies --    131.1632               217.3413               274.3594
 Red. masses --      8.0610                 6.3026                 3.3807
 Frc consts  --      0.0817                 0.1754                 0.1499
 IR Inten    --      3.1887                 7.0857                 3.9509

                      7                      8                      9
                      A                      A                      A
 Frequencies --    285.1620               394.5291               397.7465
 Red. masses --      3.7307                 8.5456                 4.1351
 Frc consts  --      0.1787                 0.7837                 0.3854
 IR Inten    --      1.9870                 0.3447                 0.6388

                     10                     11                     12
                      A                      A                      A
 Frequencies --    433.0910               467.5317               470.5013
 Red. masses --      3.9573                 5.4271                 4.0567
 Frc consts  --      0.4373                 0.6989                 0.5291
 IR Inten    --      5.1296                 0.4649                 0.7003

                     13                     14                     15
                      A                      A                      A
 Frequencies --    497.2559               580.2768               612.1106
 Red. masses --      3.5035                 6.7587                 4.0608
 Frc consts  --      0.5104                 1.3409                 0.8964
 IR Inten    --      5.3151                 1.1080                 5.3413

                     16                     17                     18
                      A                      A                      A
 Frequencies --    643.6715               673.3036               677.9060
 Red. masses --      8.0435                 6.1917                 3.2079
 Frc consts  --      1.9635                 1.6538                 0.8686
 IR Inten    --      3.8470                 0.4875                 5.7395

                     19                     20                     21
                      A                      A                      A
 Frequencies --    766.6218               785.1633               793.8007
 Red. masses --      5.6293                 5.6496                 3.3544
 Frc consts  --      1.9492                 2.0520                 1.2453
 IR Inten    --      0.5563                 2.1016                 5.0446

                     22                     23                     24
                      A                      A                      A
 Frequencies --    809.4908               862.1346               931.6879
 Red. masses --      1.3602                 1.6156                 1.5140
 Frc consts  --      0.5252                 0.7075                 0.7743
 IR Inten    --      0.0026                47.2794                19.2413

                     25                     26                     27
                      A                      A                      A
 Frequencies --    952.7570               969.0670               981.2444
 Red. masses --      2.2800                 4.3188                 1.3096
 Frc consts  --      1.2194                 2.3896                 0.7429
 IR Inten    --      4.3416                 9.6166                 0.1012

                     28                     29                     30
                      A                      A                      A
 Frequencies --    999.0239              1032.3633              1056.7432
 Red. masses --      1.3265                 1.8839                 1.5986
 Frc consts  --      0.7800                 1.1830                 1.0518
 IR Inten    --      1.2560                 4.5697                 2.6232

                     31                     32                     33
                      A                      A                      A
 Frequencies --   1140.7814              1173.0455              1182.3842
 Red. masses --      1.7057                 1.2497                 1.9928
 Frc consts  --      1.3079                 1.0132                 1.6414
 IR Inten    --      8.8313                 1.5729                 3.1745

                     34                     35                     36
                      A                      A                      A
 Frequencies --   1229.1359              1242.9106              1279.8120
 Red. masses --      3.1249                 2.3154                 1.5806
 Frc consts  --      2.7816                 2.1075                 1.5253
 IR Inten    --      1.8663                 9.6140                 0.7113

                     37                     38                     39
                      A                      A                      A
 Frequencies --   1325.5857              1377.1802              1394.1297
 Red. masses --      3.2678                 3.2967                 6.5373
 Frc consts  --      3.3832                 3.6839                 7.4861
 IR Inten    --     12.4767                11.4044                 0.6903

                     40                     41                     42
                      A                      A                      A
 Frequencies --   1407.2539              1437.7975              1478.0520
 Red. masses --      1.3185                 3.1090                 1.8190
 Frc consts  --      1.5384                 3.7868                 2.3413
 IR Inten    --      7.1582                10.5717                14.9836

                     43                     44                     45
                      A                      A                      A
 Frequencies --   1484.2499              1484.5340              1538.0968
 Red. masses --      1.4880                 1.0440                 3.3570
 Frc consts  --      1.9314                 1.3556                 4.6792
 IR Inten    --     10.7990                 8.8414                30.0281

                     46                     47                     48
                      A                      A                      A
 Frequencies --   1586.2881              1647.2576              1653.5968
 Red. masses --      6.9156                 6.1828                 6.4056
 Frc consts  --     10.2528                 9.8846                10.3198
 IR Inten    --     12.4371                64.5022                10.7577

                     49                     50                     51
                      A                      A                      A
 Frequencies --   2332.1482              3027.6525              3076.4883
 Red. masses --     12.6796                 1.0389                 1.0996
 Frc consts  --     40.6320                 5.6109                 6.1320
 IR Inten    --     49.1901                15.7036                12.3376

                     52                     53                     54
                      A                      A                      A
 Frequencies --   3137.5751              3164.8071              3170.6747
 Red. masses --      1.0994                 1.0878                 1.0891
 Frc consts  --      6.3769                 6.4194                 6.4507
 IR Inten    --      6.1236                 2.7231                 7.0537

                     55                     56                     57
                      A                      A                      A
 Frequencies --   3184.0452              3200.2618              3207.5129
 Red. masses --      1.0961                 1.0946                 1.0926
 Frc consts  --      6.5474                 6.6052                 6.6230
 IR Inten    --     13.2586                 3.3421                 0.3478

 - Thermochemistry -
 -------------------
 Temperature   298.150 Kelvin.  Pressure   1.00000 Atm.
 Atom     1 has atomic number  6 and mass  12.00000

 Molecular mass:   168.06875 amu.
 Principal axes and moments of inertia in atomic units:
                           1         2         3
     Eigenvalues --   871.662263686.914544547.40008
           X            0.99979   0.02048   0.00000
           Y           -0.02048   0.99979   0.00000
           Z            0.00000   0.00000   1.00000
 This molecule is an asymmetric top.
 Rotational symmetry number  1.
 Warning -- assumption of classical behavior for rotation
           may cause significant error
 Rotational temperatures (Kelvin)      0.09937     0.02349     0.01905
 Rotational constants (GHZ):           2.07046     0.48950     0.39687
 Zero-point vibrational energy     421839.0 (Joules/Mol)
                                  100.82195 (Kcal/Mol)
 Warning -- explicit consideration of  15 degrees of freedom as
           vibrations may cause significant error
 Vibrational temperatures:     86.81   126.38   170.50   188.71   312.71
          (Kelvin)            394.74   410.28   567.64   572.27   623.12
                              672.67   676.95   715.44   834.89   880.69
                              926.10   968.73   975.35  1103.00  1129.67
                             1142.10  1164.68  1240.42  1340.49  1370.80
                             1394.27  1411.79  1437.37  1485.34  1520.42
                             1641.33  1687.75  1701.19  1768.45  1788.27
                             1841.36  1907.22  1981.45  2005.84  2024.72
                             2068.67  2126.58  2135.50  2135.91  2212.98
                             2282.31  2370.03  2379.15  3355.44  4356.11
                             4426.37  4514.27  4553.45  4561.89  4581.13
                             4604.46  4614.89

 Zero-point correction=                           0.160670 (Hartree/Particle)
 Thermal correction to Energy=                    0.171041
 Thermal correction to Enthalpy=                  0.171985
 Thermal correction to Gibbs Free Energy=         0.124172
 Sum of electronic and zero-point Energies=           -533.467542
 Sum of electronic and thermal Energies=              -533.457172
 Sum of electronic and thermal Enthalpies=            -533.456227
 Sum of electronic and thermal Free Energies=         -533.504041

                     E (Thermal)             CV                S
                      KCal/Mol        Cal/Mol-Kelvin    Cal/Mol-Kelvin
 Total                  107.330             40.198            100.632
 Electronic               0.000              0.000              0.000
 Translational            0.889              2.981             41.266
 Rotational               0.889              2.981             31.058
 Vibrational            105.552             34.237             28.308
 Vibration     1          0.597              1.973              4.446
 Vibration     2          0.601              1.958              3.708
 Vibration     3          0.609              1.934              3.125
 Vibration     4          0.612              1.922              2.929
 Vibration     5          0.646              1.815              1.981
 Vibration     6          0.677              1.721              1.569
 Vibration     7          0.683              1.701              1.503
 Vibration     8          0.761              1.482              0.983
 Vibration     9          0.764              1.475              0.971
 Vibration    10          0.794              1.398              0.849
 Vibration    11          0.825              1.322              0.744
 Vibration    12          0.828              1.315              0.736
 Vibration    13          0.853              1.256              0.665
 Vibration    14          0.937              1.074              0.485
 Vibration    15          0.971              1.006              0.429

 Optimization completed.
    -- Stationary point found.
 Normal termination of Gaussian 09 at Mon Jan  9 17:48:35 2023.
