 Gaussian 09, Revision D.01,
 Gaussian 09:  ES64L-G09RevD.01 24-Apr-2013

 ----------------------------------------------------------------------
 # opt=rcfc freq=noraman b3lyp/6-311+g(d,p) pop=(npa,hirshfeld,chelpg,m
 bs) geom=allcheck guess=read
 ----------------------------------------------------------------------

 Structure from the checkpoint file:  "43.chk"
 -------------------
 Title Card Required
 -------------------
 Charge =  0 Multiplicity = 1

 SCF Done:  E(RB3LYP) =  -1198.80071520     A.U. after    1 cycles
 SCF Done:  E(RB3LYP) =  -1198.80071581     A.U. after    9 cycles
 Optimization completed.
    -- Stationary point found.
 Normal termination of Gaussian 09 at Wed Apr 24 12:47:32 2024.

 ----------------------------------------------------------------------
 #N Geom=AllCheck Guess=TCheck SCRF=Check GenChk RB3LYP/6-311+G(d,p) Fr
 eq
 ----------------------------------------------------------------------

 Structure from the checkpoint file:  "43.chk"
 -------------------
 Title Card Required
 -------------------
 Charge =  0 Multiplicity = 1

                         Standard orientation:
 ---------------------------------------------------------------------
 Center     Atomic      Atomic             Coordinates (Angstroms)
 Number     Number       Type             X           Y           Z
 ---------------------------------------------------------------------
      1          6           0        1.606881   -0.101854   -0.000004
      2          6           0        0.902731    1.075270    0.000000
      3          6           0       -0.516185    1.062275    0.000005
      4          6           0       -1.197150   -0.197017    0.000007
      5          6           0       -0.436095   -1.394109    0.000009
      6          6           0        0.933945   -1.349508    0.000001
      7          1           0        1.397706    2.036956   -0.000005
      8          6           0       -2.616265   -0.138448    0.000000
      9          1           0       -0.948568   -2.346919    0.000013
     10          1           0        1.507261   -2.268418   -0.000002
     11          6           0       -3.258173    1.072775   -0.000003
     12          6           0       -2.472816    2.248970   -0.000001
     13          1           0       -4.338381    1.134156   -0.000009
     14          1           0       -2.970070    3.215373   -0.000004
     15          7           0       -1.159460    2.261689    0.000002
     16         17           0       -3.563109   -1.611879   -0.000003
     17          6           0        3.112383   -0.104025   -0.000003
     18          9           0        3.607967   -0.748467   -1.085317
     19          9           0        3.607965   -0.748307    1.085407
     20          9           0        3.638022    1.135997   -0.000091
 ---------------------------------------------------------------------

 SCF Done:  E(RB3LYP) =  -1198.80071581     A.U. after    1 cycles

 The electronic state is 1-A.
 Alpha  occ. eigenvalues -- -101.58225 -24.72503 -24.72025 -24.72024 -14.33738
 Alpha  occ. eigenvalues --  -10.44169 -10.27777 -10.24589 -10.23985 -10.22941
 Alpha  occ. eigenvalues --  -10.22793 -10.21647 -10.21463 -10.21239 -10.21220
 Alpha  occ. eigenvalues --   -9.49690  -7.26150  -7.25181  -7.25126  -1.32854
 Alpha  occ. eigenvalues --   -1.24247  -1.23701  -0.98163  -0.91220  -0.89204
 Alpha  occ. eigenvalues --   -0.81991  -0.80454  -0.78061  -0.73134  -0.67688
 Alpha  occ. eigenvalues --   -0.66902  -0.63120  -0.60623  -0.60458  -0.60180
 Alpha  occ. eigenvalues --   -0.55933  -0.53917  -0.52654  -0.48799  -0.48481
 Alpha  occ. eigenvalues --   -0.47517  -0.47339  -0.47009  -0.45598  -0.44558
 Alpha  occ. eigenvalues --   -0.44380  -0.43969  -0.43052  -0.42475  -0.39838
 Alpha  occ. eigenvalues --   -0.39153  -0.38858  -0.37665  -0.34425  -0.31761
 Alpha  occ. eigenvalues --   -0.29015  -0.29006  -0.26756
 Alpha virt. eigenvalues --   -0.09313  -0.06253  -0.02199  -0.01124  -0.00496
 Alpha virt. eigenvalues --    0.01187   0.02045   0.02617   0.03138   0.03706
 Alpha virt. eigenvalues --    0.03809   0.04578   0.05849   0.05944   0.06146

 Mulliken charges:
               1
     1  C   -0.604463
     2  C   -0.510704
     3  C   -1.174832
     4  C    1.111014
     5  C   -0.852139
     6  C    0.101506
     7  H    0.150570
     8  C    0.491747
     9  H    0.162945
    10  H    0.147637
    11  C   -0.398914
    12  C    0.011795
    13  H    0.153994
    14  H    0.140684
    15  N    0.031065
    16  Cl   0.472434
    17  C    0.854218
    18  F   -0.072413
    19  F   -0.072405
    20  F   -0.143737
 Sum of Mulliken charges =   0.00000

 Dipole moment (field-independent basis, Debye):
    X=             -3.2603    Y=             -0.5468    Z=              0.0000  Tot=              3.3058
 Quadrupole moment (field-independent basis, Debye-Ang):
   XX=            -93.1167   YY=            -89.1368   ZZ=            -94.5472
   XY=             -4.4508   XZ=              0.0000   YZ=              0.0000

  Exact polarizability: 191.397  -9.001 150.316   0.015   0.008  74.102
 Approx polarizability: 293.106 -18.064 267.061   0.000   0.000 116.108

 ESP charges:
               1
     1  C   -0.063860
     2  C   -0.220795
     3  C    0.513593
     4  C   -0.061253
     5  C   -0.111848
     6  C   -0.126666
     7  H    0.136752
     8  C    0.163849
     9  H    0.110953
    10  H    0.134893
    11  C   -0.273831
    12  C    0.369060
    13  H    0.129356
    14  H    0.040528
    15  N   -0.641930
    16  Cl  -0.100765
    17  C    0.789817
    18  F   -0.272256
    19  F   -0.272260
    20  F   -0.243337
 Sum of ESP charges =   0.00000

 Summary of Natural Population Analysis:

                                       Natural Population
                Natural  -----------------------------------------------
    Atom  No    Charge         Core      Valence    Rydberg      Total
 -----------------------------------------------------------------------
      C    1   -0.13481      1.99889     4.11789    0.01802     6.13481
      C    2   -0.15030      1.99899     4.13267    0.01865     6.15030
      C    3    0.17757      1.99896     3.79855    0.02492     5.82243
      C    4   -0.11075      1.99882     4.09541    0.01651     6.11075
      C    5   -0.17075      1.99909     4.15417    0.01748     6.17075
      C    6   -0.17111      1.99909     4.15455    0.01748     6.17111
      H    7    0.24373      0.00000     0.75378    0.00249     0.75627
      C    8    0.01593      1.99851     3.96129    0.02427     5.98407
      H    9    0.22823      0.00000     0.76989    0.00188     0.77177
      H   10    0.22658      0.00000     0.77179    0.00163     0.77342
      C   11   -0.26051      1.99894     4.24348    0.01810     6.26051
      C   12    0.08522      1.99924     3.88755    0.02799     5.91478
      H   13    0.23212      0.00000     0.76609    0.00179     0.76788
      H   14    0.19481      0.00000     0.80373    0.00146     0.80519
      N   15   -0.43656      1.99938     5.41528    0.02190     7.43656
     Cl   16    0.02721      9.99961     6.95369    0.01949    16.97279
      C   17    1.06800      1.99911     2.87277    0.06012     4.93200
      F   18   -0.35610      1.99992     7.34970    0.00648     9.35610
      F   19   -0.35610      1.99992     7.34970    0.00648     9.35610
      F   20   -0.35242      1.99992     7.34553    0.00697     9.35242
 =======================================================================
   * Total *    0.00000     37.98838    77.69752    0.31410   116.00000

                      1                      2                      3
                      A                      A                      A
 Frequencies --     14.6768                62.2438               128.2564
 Red. masses --     13.2111                 9.3437                 5.0403
 Frc consts  --      0.0017                 0.0213                 0.0488
 IR Inten    --      0.0677                 0.2335                 1.8230

                      4                      5                      6
                      A                      A                      A
 Frequencies --    130.6592               196.4000               209.5223
 Red. masses --     13.9974                 7.6793                13.8404
 Frc consts  --      0.1408                 0.1745                 0.3580
 IR Inten    --      0.3511                 1.8708                 0.5516

                      7                      8                      9
                      A                      A                      A
 Frequencies --    234.0338               289.8110               362.7869
 Red. masses --      5.5083                11.2730                 6.4385
 Frc consts  --      0.1778                 0.5579                 0.4993
 IR Inten    --      0.0720                 4.2424                 2.7449

                     10                     11                     12
                      A                      A                      A
 Frequencies --    377.1346               394.9014               433.2076
 Red. masses --      9.6309                13.8277                 3.3504
 Frc consts  --      0.8071                 1.2705                 0.3705
 IR Inten    --      0.3036                 3.3958                 5.7984

                     13                     14                     15
                      A                      A                      A
 Frequencies --    477.1500               502.8179               556.8804
 Red. masses --      6.1637                 6.0731                 8.7066
 Frc consts  --      0.8268                 0.9046                 1.5908
 IR Inten    --      6.5199                 0.0832                 0.4395

                     16                     17                     18
                      A                      A                      A
 Frequencies --    569.1132               574.8803               597.1367
 Red. masses --      4.8819                 9.0334                 5.1452
 Frc consts  --      0.9316                 1.7590                 1.0809
 IR Inten    --      0.0775                 8.6481                 0.0615

                     19                     20                     21
                      A                      A                      A
 Frequencies --    603.3747               688.9179               692.3559
 Red. masses --      8.2367                 7.4070                 4.0031
 Frc consts  --      1.7668                 2.0712                 1.1306
 IR Inten    --     12.3034                18.0626                 8.1435

                     22                     23                     24
                      A                      A                      A
 Frequencies --    736.1138               789.9169               827.7946
 Red. masses --     12.6176                 3.4577                 6.3811
 Frc consts  --      4.0283                 1.2712                 2.5763
 IR Inten    --     12.8142                 0.5581                32.7028

                     25                     26                     27
                      A                      A                      A
 Frequencies --    840.9242               856.7020               903.8594
 Red. masses --      1.7936                 1.2522                 6.2912
 Frc consts  --      0.7473                 0.5415                 3.0282
 IR Inten    --     16.9528                33.7520                35.3760

                     28                     29                     30
                      A                      A                      A
 Frequencies --    933.4283               981.5847               985.2864
 Red. masses --      1.4810                 1.4025                 6.4826
 Frc consts  --      0.7603                 0.7962                 3.7079
 IR Inten    --     32.8951                 0.1358                43.9344

                     31                     32                     33
                      A                      A                      A
 Frequencies --    989.0864              1074.4427              1083.5653
 Red. masses --      1.3359                 2.7747                 2.2312
 Frc consts  --      0.7700                 1.8872                 1.5435
 IR Inten    --      2.1603                81.2166                16.3546

                     34                     35                     36
                      A                      A                      A
 Frequencies --   1107.0183              1145.7130              1177.8321
 Red. masses --     12.2086                 9.1589                 1.6534
 Frc consts  --      8.8150                 7.0835                 1.3514
 IR Inten    --    281.6694               217.8877                14.0762

                     37                     38                     39
                      A                      A                      A
 Frequencies --   1215.9881              1224.0566              1273.9268
 Red. masses --      2.1120                 2.1615                 1.6526
 Frc consts  --      1.8399                 1.9081                 1.5802
 IR Inten    --     81.7914                20.2110                34.0462

                     40                     41                     42
                      A                      A                      A
 Frequencies --   1305.8939              1344.6081              1369.4013
 Red. masses --      5.9730                 3.0070                 3.0633
 Frc consts  --      6.0015                 3.2032                 3.3845
 IR Inten    --    266.4697                71.5218                 9.1250

                     43                     44                     45
                      A                      A                      A
 Frequencies --   1398.8769              1446.8117              1485.4154
 Red. masses --      2.6637                 3.2268                 3.3133
 Frc consts  --      3.0710                 3.9797                 4.3073
 IR Inten    --     34.7208                 8.6233                37.5626

                     46                     47                     48
                      A                      A                      A
 Frequencies --   1529.1589              1592.4549              1625.5951
 Red. masses --      3.2672                 7.5429                 7.0203
 Frc consts  --      4.5013                11.2699                10.9303
 IR Inten    --     54.0760                46.6343                34.9493

                     49                     50                     51
                      A                      A                      A
 Frequencies --   1669.6798              3150.3115              3191.5882
 Red. masses --      6.4298                 1.0901                 1.0888
 Frc consts  --     10.5613                 6.3744                 6.5346
 IR Inten    --      1.1408                17.3968                 0.2521

                     52                     53                     54
                      A                      A                      A
 Frequencies --   3208.9117              3210.8668              3219.2124
 Red. masses --      1.0938                 1.0941                 1.0920
 Frc consts  --      6.6359                 6.6462                 6.6677
 IR Inten    --      0.6725                 0.8777                 1.0754

 - Thermochemistry -
 -------------------
 Temperature   298.150 Kelvin.  Pressure   1.00000 Atm.
 Atom     1 has atomic number  6 and mass  12.00000

 Molecular mass:   231.00626 amu.
 Principal axes and moments of inertia in atomic units:
                           1         2         3
     Eigenvalues --  1526.428186282.270817489.01264
           X            0.99992  -0.01292   0.00000
           Y            0.01292   0.99992   0.00000
           Z            0.00000   0.00000   1.00000
 This molecule is an asymmetric top.
 Rotational symmetry number  1.
 Warning -- assumption of classical behavior for rotation
           may cause significant error
 Rotational temperatures (Kelvin)      0.05674     0.01379     0.01157
 Rotational constants (GHZ):           1.18233     0.28728     0.24099
 Zero-point vibrational energy     340889.6 (Joules/Mol)
                                   81.47456 (Kcal/Mol)
 Warning -- explicit consideration of  19 degrees of freedom as
           vibrations may cause significant error
 Vibrational temperatures:     21.12    89.55   184.53   187.99   282.58
          (Kelvin)            301.46   336.72   416.97   521.97   542.61
                              568.17   623.29   686.51   723.44   801.23
                              818.83   827.12   859.15   868.12   991.20
                              996.14  1059.10  1136.51  1191.01  1209.90
                             1232.60  1300.45  1342.99  1412.28  1417.61
                             1423.07  1545.88  1559.01  1592.75  1648.42
                             1694.64  1749.53  1761.14  1832.89  1878.89
                             1934.59  1970.26  2012.67  2081.64  2137.18
                             2200.12  2291.18  2338.87  2402.29  4532.59
                             4591.98  4616.90  4619.72  4631.72

 Zero-point correction=                           0.129838 (Hartree/Particle)
 Thermal correction to Energy=                    0.141453
 Thermal correction to Enthalpy=                  0.142397
 Thermal correction to Gibbs Free Energy=         0.089909
 Sum of electronic and zero-point Energies=          -1198.670878
 Sum of electronic and thermal Energies=             -1198.659263
 Sum of electronic and thermal Enthalpies=           -1198.658319
 Sum of electronic and thermal Free Energies=        -1198.710807

                     E (Thermal)             CV                S
                      KCal/Mol        Cal/Mol-Kelvin    Cal/Mol-Kelvin
 Total                   88.763             44.547            110.471
 Electronic               0.000              0.000              0.000
 Translational            0.889              2.981             42.214
 Rotational               0.889              2.981             32.640
 Vibrational             86.985             38.586             35.616
 Vibration     1          0.593              1.986              7.249
 Vibration     2          0.597              1.972              4.385
 Vibration     3          0.611              1.925              2.972
 Vibration     4          0.612              1.923              2.936
 Vibration     5          0.636              1.845              2.167
 Vibration     6          0.642              1.826              2.048
 Vibration     7          0.654              1.789              1.848
 Vibration     8          0.686              1.693              1.475
 Vibration     9          0.737              1.549              1.110
 Vibration    10          0.748              1.519              1.051
 Vibration    11          0.762              1.481              0.982
 Vibration    12          0.794              1.398              0.848
 Vibration    13          0.834              1.301              0.718
 Vibration    14          0.858              1.244              0.651
 Vibration    15          0.912              1.125              0.530
 Vibration    16          0.925              1.098              0.506
 Vibration    17          0.931              1.086              0.495
 Vibration    18          0.955              1.038              0.455
 Vibration    19          0.962              1.025              0.444

 Optimization completed.
    -- Stationary point found.
 Normal termination of Gaussian 09 at Wed Apr 24 12:53:08 2024.
