 Gaussian 09, Revision D.01,
 Gaussian 09:  ES64L-G09RevD.01 24-Apr-2013

 ---------------------------------------------------------------------
 # b3lyp/6-311+g(d,p) geom=connectivity pop=(hirshfeld,chelpg,mbs,npa)
 ---------------------------------------------------------------------

 --------
 Table5_3
 --------
 Symbolic Z-matrix:
 Charge =  0 Multiplicity = 1

                         Standard orientation:
 ---------------------------------------------------------------------
 Center     Atomic      Atomic             Coordinates (Angstroms)
 Number     Number       Type             X           Y           Z
 ---------------------------------------------------------------------
      1          6           0       -0.000050   -0.331165    1.124851
      2          6           0       -0.000050    0.982448    0.712370
      3          6           0       -0.000050    0.982448   -0.712370
      4          6           0       -0.000050   -0.331165   -1.124851
      5          7           0        0.000104   -1.121836    0.000000
      6          1           0        0.000440   -2.127884    0.000000
      7          1           0        0.000081   -0.762968    2.112336
      8          1           0       -0.000060    1.845632    1.359465
      9          1           0       -0.000060    1.845632   -1.359465
     10          1           0        0.000081   -0.762968   -2.112336
 ---------------------------------------------------------------------

 SCF Done:  E(RB3LYP) =  -210.230524363     A.U. after   11 cycles

 The electronic state is 1-A'.
 Alpha  occ. eigenvalues --  -14.36064 -10.19154 -10.19153 -10.15526 -10.15482
 Alpha  occ. eigenvalues --   -0.97915  -0.77550  -0.72360  -0.59334  -0.56823
 Alpha  occ. eigenvalues --   -0.54786  -0.43432  -0.42747  -0.40966  -0.39331
 Alpha  occ. eigenvalues --   -0.37924  -0.24928  -0.21851
 Alpha virt. eigenvalues --   -0.00312   0.02062   0.02661   0.03016   0.04787
 Alpha virt. eigenvalues --    0.05060   0.05969   0.06378   0.07307   0.09489
 Alpha virt. eigenvalues --    0.10126   0.10379   0.11095   0.14621   0.14687

 Mulliken charges:
               1
     1  C   -0.195685
     2  C   -0.102185
     3  C   -0.102185
     4  C   -0.195685
     5  N   -0.147984
     6  H    0.269086
     7  H    0.119313
     8  H    0.118006
     9  H    0.118006
    10  H    0.119313
 Sum of Mulliken charges =   0.00000

 Dipole moment (field-independent basis, Debye):
    X=              0.0008    Y=             -1.8807    Z=              0.0000  Tot=              1.8807
 Quadrupole moment (field-independent basis, Debye-Ang):
   XX=            -34.5768   YY=            -23.9930   ZZ=            -27.2466
   XY=             -0.0017   XZ=              0.0000   YZ=              0.0000

 ESP charges:
               1
     1  C   -0.162267
     2  C   -0.122334
     3  C   -0.122334
     4  C   -0.162267
     5  N   -0.170727
     6  H    0.284355
     7  H    0.130375
     8  H    0.097412
     9  H    0.097412
    10  H    0.130375
 Sum of ESP charges =   0.00000

 Summary of Natural Population Analysis:

                                       Natural Population
                Natural  -----------------------------------------------
    Atom  No    Charge         Core      Valence    Rydberg      Total
 -----------------------------------------------------------------------
      C    1   -0.05695      1.99922     4.03319    0.02454     6.05695
      C    2   -0.29576      1.99918     4.27867    0.01792     6.29576
      C    3   -0.29576      1.99918     4.27867    0.01792     6.29576
      C    4   -0.05695      1.99922     4.03319    0.02454     6.05695
      N    5   -0.53481      1.99939     5.52009    0.01534     7.53481
      H    6    0.40255      0.00000     0.59531    0.00214     0.59745
      H    7    0.20415      0.00000     0.79441    0.00145     0.79585
      H    8    0.21470      0.00000     0.78390    0.00141     0.78530
      H    9    0.21470      0.00000     0.78390    0.00141     0.78530
      H   10    0.20415      0.00000     0.79441    0.00145     0.79585
 =======================================================================
   * Total *    0.00000      9.99619    25.89571    0.10810    36.00000

 Normal termination of Gaussian 09 at Fri Jul 23 17:34:14 2021.
