 Gaussian 09, Revision D.01,
 Gaussian 09:  ES64L-G09RevD.01 24-Apr-2013

 ---------------------------------------------------------------------
 # b3lyp/6-311+g(d,p) geom=connectivity pop=(hirshfeld,chelpg,mbs,npa)
 ---------------------------------------------------------------------

 --------
 Table6_7
 --------
 Symbolic Z-matrix:
 Charge =  0 Multiplicity = 1

                         Standard orientation:
 ---------------------------------------------------------------------
 Center     Atomic      Atomic             Coordinates (Angstroms)
 Number     Number       Type             X           Y           Z
 ---------------------------------------------------------------------
      1          6           0        1.465541   -0.702089    0.000117
      2          6           0        1.536391    0.670457    0.000168
      3          6           0        0.198196    1.164544   -0.000075
      4          6           0       -0.656698    0.082387   -0.000141
      5          7           0        0.131378   -1.048517   -0.000292
      6          1           0       -0.218082   -1.992653    0.000237
      7          1           0        2.238226   -1.453521    0.000206
      8          1           0        2.442857    1.255522    0.000047
      9          1           0       -0.107666    2.199858   -0.000461
     10          6           0       -2.149136    0.007814    0.000147
     11          1           0       -2.535780   -0.512179   -0.883791
     12          1           0       -2.535386   -0.510600    0.885191
     13          1           0       -2.569579    1.014510   -0.000678
 ---------------------------------------------------------------------

 SCF Done:  E(RB3LYP) =  -249.559854220     A.U. after   12 cycles

 The electronic state is 1-A.
 Alpha  occ. eigenvalues --  -14.35336 -10.19556 -10.18656 -10.17575 -10.15059
 Alpha  occ. eigenvalues --  -10.14845  -0.97488  -0.77171  -0.76346  -0.67433
 Alpha  occ. eigenvalues --   -0.58744  -0.56728  -0.51454  -0.43655  -0.43618
 Alpha  occ. eigenvalues --   -0.42278  -0.39717  -0.38475  -0.38453  -0.36427
 Alpha  occ. eigenvalues --   -0.24479  -0.20767
 Alpha virt. eigenvalues --   -0.00410   0.01795   0.02470   0.02864   0.04499
 Alpha virt. eigenvalues --    0.04521   0.04792   0.06752   0.07175   0.07836
 Alpha virt. eigenvalues --    0.07973   0.08593   0.09627   0.11526   0.13381

 Mulliken charges:
               1
     1  C   -0.094075
     2  C   -0.246115
     3  C    0.274377
     4  C   -0.076680
     5  N   -0.117652
     6  H    0.266584
     7  H    0.112815
     8  H    0.114876
     9  H    0.105563
    10  C   -0.781311
    11  H    0.144988
    12  H    0.145045
    13  H    0.151586
 Sum of Mulliken charges =   0.00000

 Dipole moment (field-independent basis, Debye):
    X=             -1.0902    Y=             -1.6650    Z=              0.0005  Tot=              1.9901
 Quadrupole moment (field-independent basis, Debye-Ang):
   XX=            -34.1630   YY=            -31.2579   ZZ=            -40.7874
   XY=             -0.1557   XZ=             -0.0002   YZ=             -0.0029

 ESP charges:
               1
     1  C   -0.215776
     2  C   -0.059873
     3  C   -0.281231
     4  C    0.160739
     5  N   -0.262173
     6  H    0.308706
     7  H    0.144762
     8  H    0.084741
     9  H    0.128499
    10  C   -0.187846
    11  H    0.050868
    12  H    0.050841
    13  H    0.077743
 Sum of ESP charges =   0.00000

 Summary of Natural Population Analysis:

                                       Natural Population
                Natural  -----------------------------------------------
    Atom  No    Charge         Core      Valence    Rydberg      Total
 -----------------------------------------------------------------------
      C    1   -0.05775      1.99922     4.03466    0.02387     6.05775
      C    2   -0.29160      1.99918     4.27448    0.01794     6.29160
      C    3   -0.29590      1.99904     4.27989    0.01698     6.29590
      C    4    0.13014      1.99914     3.84877    0.02194     5.86986
      N    5   -0.54113      1.99932     5.52660    0.01521     7.54113
      H    6    0.39902      0.00000     0.59880    0.00219     0.60098
      H    7    0.20264      0.00000     0.79583    0.00153     0.79736
      H    8    0.21321      0.00000     0.78525    0.00154     0.78679
      H    9    0.21209      0.00000     0.78650    0.00141     0.78791
      C   10   -0.60282      1.99930     4.59462    0.00890     6.60282
      H   11    0.20596      0.00000     0.79227    0.00178     0.79404
      H   12    0.20596      0.00000     0.79226    0.00178     0.79404
      H   13    0.22017      0.00000     0.77872    0.00110     0.77983
 =======================================================================
   * Total *    0.00000     11.99519    31.88864    0.11617    44.00000

 Normal termination of Gaussian 09 at Fri Jul 23 17:36:26 2021.
