 Gaussian 09, Revision D.01,
 Gaussian 09:  ES64L-G09RevD.01 24-Apr-2013

 ---------------------------------------------------------------------
 # b3lyp/6-311+g(d,p) geom=connectivity pop=(hirshfeld,chelpg,mbs,npa)
 ---------------------------------------------------------------------

 --------
 Table9_4
 --------
 Symbolic Z-matrix:
 Charge =  0 Multiplicity = 1

                         Standard orientation:
 ---------------------------------------------------------------------
 Center     Atomic      Atomic             Coordinates (Angstroms)
 Number     Number       Type             X           Y           Z
 ---------------------------------------------------------------------
      1          6           0        1.851065   -0.631255    0.000005
      2          6           0        1.631407    0.777270   -0.000006
      3          6           0        2.742218    1.641761    0.000001
      4          6           0        4.013870    1.097372    0.000010
      5          6           0        4.208546   -0.301689    0.000010
      6          6           0        3.138556   -1.181436    0.000014
      7          6           0       -0.366148   -0.269249   -0.000010
      8          6           0        0.217372    0.978320   -0.000047
      9          1           0        2.600266    2.716768   -0.000007
     10          1           0        4.879184    1.750083    0.000010
     11          1           0        5.218828   -0.694774    0.000019
     12          1           0        3.293797   -2.254370    0.000034
     13          1           0        0.420411   -2.226099    0.000000
     14          1           0       -0.314465    1.915962   -0.000082
     15          7           0        0.621338   -1.237958    0.000046
     16          6           0       -1.764984   -0.702863   -0.000004
     17          8           0       -2.099997   -1.871560    0.000074
     18          8           0       -2.626265    0.330313   -0.000147
     19          6           0       -4.036453   -0.006536   -0.000153
     20          6           0       -4.815529    1.292284    0.000190
     21          1           0       -4.248969   -0.613751    0.882639
     22          1           0       -4.249054   -0.613304   -0.883232
     23          1           0       -5.887318    1.076547    0.000134
     24          1           0       -4.585735    1.887148    0.886953
     25          1           0       -4.585739    1.887597   -0.886274
 ---------------------------------------------------------------------

 SCF Done:  E(RB3LYP) =  -631.195656000     A.U. after   15 cycles

 The electronic state is 1-A.
 Alpha  occ. eigenvalues --  -19.17401 -19.11732 -14.36666 -10.31217 -10.23663
 Alpha  occ. eigenvalues --  -10.22196 -10.21945 -10.18375 -10.18340 -10.18109
 Alpha  occ. eigenvalues --  -10.18092 -10.18077 -10.17558 -10.17456  -1.11556
 Alpha  occ. eigenvalues --   -1.02982  -0.99491  -0.85374  -0.80525  -0.78672
 Alpha  occ. eigenvalues --   -0.75307  -0.73904  -0.67632  -0.63682  -0.61528
 Alpha  occ. eigenvalues --   -0.59797  -0.57829  -0.55505  -0.51559  -0.50436
 Alpha  occ. eigenvalues --   -0.49597  -0.47792  -0.45175  -0.45106  -0.44534
 Alpha  occ. eigenvalues --   -0.44090  -0.42114  -0.41955  -0.41013  -0.40341
 Alpha  occ. eigenvalues --   -0.37431  -0.37274  -0.36406  -0.35110  -0.34548
 Alpha  occ. eigenvalues --   -0.31558  -0.29549  -0.29385  -0.23888  -0.22470
 Alpha virt. eigenvalues --   -0.06021  -0.00426  -0.00051   0.00642   0.01043
 Alpha virt. eigenvalues --    0.01437   0.02174   0.02949   0.03525   0.03983
 Alpha virt. eigenvalues --    0.04455   0.05130   0.05776   0.06159   0.06743

 Mulliken charges:
               1
     1  C   -0.590133
     2  C    1.615812
     3  C   -1.030025
     4  C    0.009953
     5  C   -0.273086
     6  C   -0.682150
     7  C    0.081778
     8  C    0.180316
     9  H    0.120030
    10  H    0.124353
    11  H    0.126176
    12  H    0.112704
    13  H    0.306656
    14  H    0.127774
    15  N   -0.116626
    16  C    0.033451
    17  O   -0.288195
    18  O   -0.112687
    19  C    0.014729
    20  C   -0.524582
    21  H    0.160202
    22  H    0.160206
    23  H    0.147874
    24  H    0.147737
    25  H    0.147736
 Sum of Mulliken charges =   0.00000

 Dipole moment (field-independent basis, Debye):
    X=             -0.5517    Y=              0.7614    Z=             -0.0002  Tot=              0.9403
 Quadrupole moment (field-independent basis, Debye-Ang):
   XX=            -69.0185   YY=            -79.3764   ZZ=            -85.8893
   XY=             -6.5474   XZ=              0.0004   YZ=              0.0004

 ESP charges:
               1
     1  C    0.273544
     2  C    0.221945
     3  C   -0.261992
     4  C   -0.100402
     5  C   -0.062167
     6  C   -0.271905
     7  C   -0.018863
     8  C   -0.322451
     9  H    0.140234
    10  H    0.090974
    11  H    0.086076
    12  H    0.139878
    13  H    0.363059
    14  H    0.159223
    15  N   -0.477314
    16  C    0.811509
    17  O   -0.602619
    18  O   -0.509722
    19  C    0.423569
    20  C   -0.223276
    21  H   -0.017048
    22  H   -0.017234
    23  H    0.037063
    24  H    0.068913
    25  H    0.069005
 Sum of ESP charges =   0.00000

 Summary of Natural Population Analysis:

                                       Natural Population
                Natural  -----------------------------------------------
    Atom  No    Charge         Core      Valence    Rydberg      Total
 -----------------------------------------------------------------------
      C    1    0.17178      1.99899     3.80898    0.02025     5.82822
      C    2   -0.10447      1.99901     4.08900    0.01645     6.10447
      C    3   -0.17609      1.99908     4.16011    0.01690     6.17609
      C    4   -0.22738      1.99918     4.20970    0.01851     6.22738
      C    5   -0.19508      1.99919     4.17749    0.01840     6.19508
      C    6   -0.23628      1.99907     4.22037    0.01684     6.23628
      C    7    0.05354      1.99899     3.92386    0.02361     5.94646
      C    8   -0.21127      1.99900     4.19707    0.01520     6.21127
      H    9    0.20862      0.00000     0.78973    0.00165     0.79138
      H   10    0.20652      0.00000     0.79203    0.00145     0.79348
      H   11    0.20629      0.00000     0.79230    0.00141     0.79371
      H   12    0.21108      0.00000     0.78709    0.00183     0.78892
      H   13    0.42488      0.00000     0.57263    0.00249     0.57512
      H   14    0.23052      0.00000     0.76768    0.00180     0.76948
      N   15   -0.52608      1.99926     5.51202    0.01480     7.52608
      C   16    0.77313      1.99924     3.18183    0.04581     5.22687
      O   17   -0.61802      1.99976     6.60614    0.01212     8.61802
      O   18   -0.55556      1.99971     6.53864    0.01721     8.55556
      C   19   -0.03721      1.99921     4.01870    0.01930     6.03721
      C   20   -0.59302      1.99936     4.58490    0.00877     6.59302
      H   21    0.18646      0.00000     0.81138    0.00216     0.81354
      H   22    0.18645      0.00000     0.81140    0.00216     0.81355
      H   23    0.20825      0.00000     0.79056    0.00119     0.79175
      H   24    0.20647      0.00000     0.79189    0.00165     0.79353
      H   25    0.20647      0.00000     0.79189    0.00165     0.79353
 =======================================================================
   * Total *    0.00000     27.98906    71.72734    0.28360   100.00000

 Normal termination of Gaussian 09 at Fri Jul 23 17:40:34 2021.
