 Gaussian 09, Revision D.01,
 Gaussian 09:  ES64L-G09RevD.01 24-Apr-2013

 ----------------------------------------------------------------------
 # opt=rcfc geom=allcheck guess=read freq=noraman b3lyp/6-311+g(d,p) po
 p=(npa,hirshfeld,chelpg,mbs)
 ----------------------------------------------------------------------

 Structure from the checkpoint file:  "BocProc_Smith3.chk"
 -------------------
 Title Card Required
 -------------------
 Charge =  0 Multiplicity = 1

 SCF Done:  E(RB3LYP) =  -784.096824251     A.U. after    1 cycles
 SCF Done:  E(RB3LYP) =  -784.096824268     A.U. after    9 cycles
 Optimization completed.
    -- Stationary point found.
 Normal termination of Gaussian 09 at Tue Jan 10 09:25:28 2023.

 ----------------------------------------------------------------------
 #N Geom=AllCheck Guess=TCheck SCRF=Check GenChk RB3LYP/6-311+G(d,p) Fr
 eq
 ----------------------------------------------------------------------

 Structure from the checkpoint file:  "BocProc_Smith3.chk"
 -------------------
 Title Card Required
 -------------------
 Charge =  0 Multiplicity = 1

                         Standard orientation:
 ---------------------------------------------------------------------
 Center     Atomic      Atomic             Coordinates (Angstroms)
 Number     Number       Type             X           Y           Z
 ---------------------------------------------------------------------
      1          6           0       -1.084096    2.674823    0.026892
      2          6           0       -2.418781    2.607139    0.335402
      3          6           0       -2.771988    1.232954    0.377288
      4          6           0       -1.643617    0.488968    0.097333
      5          7           0       -0.596166    1.391340   -0.119902
      6          1           0       -0.413885    3.512007   -0.071822
      7          1           0       -3.069286    3.449745    0.508764
      8          1           0       -3.752401    0.815231    0.540742
      9          6           0        0.808340    1.164215   -0.236768
     10          8           0        1.525102    1.969548   -0.775166
     11          8           0        1.146335    0.038883    0.365588
     12          6           0        2.509814   -0.549345    0.214195
     13          6           0        2.809383   -0.765843   -1.269001
     14          1           0        2.929375    0.179705   -1.796865
     15          1           0        3.738552   -1.334071   -1.363710
     16          1           0        2.004406   -1.337058   -1.735562
     17          6           0        3.530374    0.356465    0.902935
     18          1           0        4.507252   -0.134616    0.895840
     19          1           0        3.619130    1.315104    0.393680
     20          1           0        3.246856    0.530832    1.943983
     21          6           0        2.366254   -1.882326    0.945541
     22          1           0        3.315926   -2.421845    0.917403
     23          1           0        2.090323   -1.721540    1.990171
     24          1           0        1.598943   -2.495492    0.470104
     25          6           0       -1.588770   -0.938357   -0.242806
     26          8           0       -0.793902   -1.472010   -0.984276
     27          8           0       -2.612679   -1.602313    0.346436
     28          6           0       -2.747647   -2.986764   -0.015614
     29          1           0       -1.860177   -3.548709    0.278957
     30          1           0       -3.621005   -3.343102    0.526481
     31          1           0       -2.895287   -3.090017   -1.091891
 ---------------------------------------------------------------------

 SCF Done:  E(RB3LYP) =  -784.096824268     A.U. after    1 cycles

 The electronic state is 1-A.
 Alpha  occ. eigenvalues --  -19.17489 -19.17168 -19.12125 -19.11324 -14.38943
 Alpha  occ. eigenvalues --  -10.34702 -10.31063 -10.25538 -10.22931 -10.22154
 Alpha  occ. eigenvalues --  -10.21691 -10.18615 -10.17873 -10.16813 -10.16719
 Alpha  occ. eigenvalues --  -10.16314  -1.13028  -1.11232  -1.04293  -1.02551
 Alpha  occ. eigenvalues --   -1.00034  -0.83615  -0.80637  -0.77711  -0.72395
 Alpha  occ. eigenvalues --   -0.70417  -0.70223  -0.67184  -0.62322  -0.60922
 Alpha  occ. eigenvalues --   -0.58971  -0.55358  -0.52430  -0.49857  -0.49172
 Alpha  occ. eigenvalues --   -0.48936  -0.48460  -0.47858  -0.47534  -0.45416
 Alpha  occ. eigenvalues --   -0.45139  -0.43488  -0.42596  -0.42290  -0.41702
 Alpha  occ. eigenvalues --   -0.40875  -0.39973  -0.39786  -0.38581  -0.37655
 Alpha  occ. eigenvalues --   -0.36977  -0.36841  -0.35981  -0.34942  -0.32070
 Alpha  occ. eigenvalues --   -0.31120  -0.30013  -0.28868  -0.27368  -0.24279
 Alpha virt. eigenvalues --   -0.05503  -0.00141   0.00260   0.00954   0.01375
 Alpha virt. eigenvalues --    0.02602   0.02898   0.03059   0.03386   0.03788
 Alpha virt. eigenvalues --    0.04480   0.04850   0.05146   0.05676   0.05804

 Mulliken charges:
               1
     1  C    0.068186
     2  C   -0.396671
     3  C    0.014223
     4  C   -0.251314
     5  N    0.134418
     6  H    0.149813
     7  H    0.129042
     8  H    0.140019
     9  C    0.179289
    10  O   -0.254476
    11  O    0.110036
    12  C   -0.179346
    13  C   -0.379649
    14  H    0.175709
    15  H    0.141986
    16  H    0.178460
    17  C   -0.431546
    18  H    0.145326
    19  H    0.184679
    20  H    0.151694
    21  C   -0.426025
    22  H    0.148432
    23  H    0.153701
    24  H    0.169945
    25  C    0.001669
    26  O   -0.264481
    27  O   -0.102942
    28  C   -0.160709
    29  H    0.157369
    30  H    0.152706
    31  H    0.160456
 Sum of Mulliken charges =   0.00000

 Dipole moment (field-independent basis, Debye):
    X=             -0.3890    Y=             -1.5628    Z=              1.5643  Tot=              2.2451
 Quadrupole moment (field-independent basis, Debye-Ang):
   XX=            -83.7039   YY=            -88.4016   ZZ=            -99.7671
   XY=             -2.3682   XZ=              2.0250   YZ=              1.2945

  Exact polarizability: 172.849  -5.621 174.419  -9.742   1.391 110.863
 Approx polarizability: 240.149  -5.857 252.344 -26.661   1.097 171.122

 ESP charges:
               1
     1  C   -0.119938
     2  C   -0.120748
     3  C   -0.056005
     4  C   -0.206880
     5  N   -0.041181
     6  H    0.148063
     7  H    0.106273
     8  H    0.100892
     9  C    0.806138
    10  O   -0.568904
    11  O   -0.578313
    12  C    0.876881
    13  C   -0.407683
    14  H    0.102145
    15  H    0.065445
    16  H    0.102512
    17  C   -0.380157
    18  H    0.064853
    19  H    0.104657
    20  H    0.074578
    21  C   -0.414952
    22  H    0.071614
    23  H    0.084829
    24  H    0.129962
    25  C    0.810348
    26  O   -0.569073
    27  O   -0.437167
    28  C    0.139005
    29  H    0.029921
    30  H    0.048312
    31  H    0.034572
 Sum of ESP charges =   0.00000

 Summary of Natural Population Analysis:

                                       Natural Population
                Natural  -----------------------------------------------
    Atom  No    Charge         Core      Valence    Rydberg      Total
 -----------------------------------------------------------------------
      C    1    0.02486      1.99918     3.95624    0.01972     5.97514
      C    2   -0.28518      1.99917     4.26937    0.01665     6.28518
      C    3   -0.19690      1.99908     4.18217    0.01566     6.19690
      C    4    0.03450      1.99891     3.94399    0.02260     5.96550
      N    5   -0.43993      1.99918     5.42108    0.01968     7.43993
      H    6    0.22917      0.00000     0.76917    0.00166     0.77083
      H    7    0.22281      0.00000     0.77582    0.00137     0.77719
      H    8    0.22982      0.00000     0.76855    0.00163     0.77018
      C    9    0.97026      1.99940     2.97958    0.05077     5.02974
      O   10   -0.60590      1.99973     6.59638    0.00978     8.60590
      O   11   -0.56576      1.99968     6.54509    0.02099     8.56576
      C   12    0.27984      1.99910     3.69945    0.02162     5.72016
      C   13   -0.61261      1.99922     4.60229    0.01110     6.61261
      H   14    0.22549      0.00000     0.77307    0.00144     0.77451
      H   15    0.20835      0.00000     0.79039    0.00125     0.79165
      H   16    0.22608      0.00000     0.77258    0.00134     0.77392
      C   17   -0.60531      1.99923     4.59495    0.01114     6.60531
      H   18    0.20874      0.00000     0.79001    0.00126     0.79126
      H   19    0.22908      0.00000     0.76942    0.00150     0.77092
      H   20    0.20767      0.00000     0.79095    0.00139     0.79233
      C   21   -0.58663      1.99923     4.57515    0.01225     6.58663
      H   22    0.20574      0.00000     0.79309    0.00118     0.79426
      H   23    0.20897      0.00000     0.78963    0.00140     0.79103
      H   24    0.22058      0.00000     0.77776    0.00166     0.77942
      C   25    0.77975      1.99924     3.17559    0.04543     5.22025
      O   26   -0.60474      1.99974     6.59275    0.01224     8.60474
      O   27   -0.55189      1.99973     6.53732    0.01484     8.55189
      C   28   -0.21359      1.99925     4.19830    0.01604     6.21359
      H   29    0.18471      0.00000     0.81340    0.00189     0.81529
      H   30    0.18654      0.00000     0.81232    0.00114     0.81346
      H   31    0.18550      0.00000     0.81255    0.00194     0.81450
 =======================================================================
   * Total *    0.00000     31.98906    87.66838    0.34255   120.00000

                      1                      2                      3
                      A                      A                      A
 Frequencies --     28.4126                47.9062                54.1994
 Red. masses --      3.5079                 4.0838                 5.1105
 Frc consts  --      0.0017                 0.0055                 0.0088
 IR Inten    --      0.0961                 1.1862                 3.8349

                      4                      5                      6
                      A                      A                      A
 Frequencies --     88.8641               111.4031               123.0164
 Red. masses --      4.3875                 2.1576                 4.3277
 Frc consts  --      0.0204                 0.0158                 0.0386
 IR Inten    --      0.2238                 2.9126                 0.7594

                      7                      8                      9
                      A                      A                      A
 Frequencies --    139.3865               159.7412               171.9190
 Red. masses --      1.5512                 3.5654                 4.1552
 Frc consts  --      0.0178                 0.0536                 0.0724
 IR Inten    --      0.9411                 1.6170                 0.2512

                     10                     11                     12
                      A                      A                      A
 Frequencies --    201.3898               207.5579               247.5206
 Red. masses --      3.4361                 1.1430                 4.3931
 Frc consts  --      0.0821                 0.0290                 0.1586
 IR Inten    --      6.8595                 0.8090                 1.8389

                     13                     14                     15
                      A                      A                      A
 Frequencies --    253.9617               269.2936               286.2547
 Red. masses --      1.0744                 1.1088                 4.0744
 Frc consts  --      0.0408                 0.0474                 0.1967
 IR Inten    --      0.0643                 0.0547                 1.2105

                     16                     17                     18
                      A                      A                      A
 Frequencies --    316.7406               329.6423               353.0307
 Red. masses --      3.1983                 4.1991                 2.5592
 Frc consts  --      0.1890                 0.2688                 0.1879
 IR Inten    --      7.0463                13.8368                 0.7878

                     19                     20                     21
                      A                      A                      A
 Frequencies --    388.8019               410.2372               446.9937
 Red. masses --      5.9348                 3.3351                 4.1223
 Frc consts  --      0.5286                 0.3307                 0.4853
 IR Inten    --      5.7312                 0.1043                 4.0943

                     22                     23                     24
                      A                      A                      A
 Frequencies --    463.8433               491.2596               586.1134
 Red. masses --      3.1508                 3.0518                 5.5945
 Frc consts  --      0.3994                 0.4339                 1.1323
 IR Inten    --      2.5196                 4.6294                 2.6520

                     25                     26                     27
                      A                      A                      A
 Frequencies --    612.1088               641.8697               752.5359
 Red. masses --      3.2132                 5.7705                 3.9132
 Frc consts  --      0.7093                 1.4007                 1.3057
 IR Inten    --      6.1330                 1.2293                10.0970

                     28                     29                     30
                      A                      A                      A
 Frequencies --    758.4276               768.9805               783.3655
 Red. masses --      1.4393                 4.0151                 9.2781
 Frc consts  --      0.4878                 1.3989                 3.3546
 IR Inten    --     56.3545                22.3321                37.1771

                     31                     32                     33
                      A                      A                      A
 Frequencies --    804.0762               841.4313               856.7088
 Red. masses --      5.3657                 3.6662                 6.3415
 Frc consts  --      2.0440                 1.5294                 2.7423
 IR Inten    --      6.6214                44.2104                31.4077

                     34                     35                     36
                      A                      A                      A
 Frequencies --    865.5435               905.1088               913.5715
 Red. masses --      1.5921                 5.0282                 1.3696
 Frc consts  --      0.7027                 2.4270                 0.6735
 IR Inten    --      8.4594                 2.0233                 1.2167

                     37                     38                     39
                      A                      A                      A
 Frequencies --    927.8014               929.4214               963.4912
 Red. masses --      1.6392                 1.6383                 5.3960
 Frc consts  --      0.8314                 0.8338                 2.9513
 IR Inten    --      0.4433                 0.1522                45.5951

                     40                     41                     42
                      A                      A                      A
 Frequencies --    974.2764              1042.8984              1052.4474
 Red. masses --      1.2013                 1.5172                 1.4164
 Frc consts  --      0.6719                 0.9723                 0.9244
 IR Inten    --      0.0516                 2.7974                 1.1943

                     43                     44                     45
                      A                      A                      A
 Frequencies --   1058.5392              1090.4320              1113.8012
 Red. masses --      1.4292                 1.8558                 2.7711
 Frc consts  --      0.9435                 1.3001                 2.0254
 IR Inten    --      3.6112                38.4391               309.7604

                     46                     47                     48
                      A                      A                      A
 Frequencies --   1170.8196              1185.4520              1206.0541
 Red. masses --      1.2793                 2.3585                 1.5381
 Frc consts  --      1.0333                 1.9528                 1.3182
 IR Inten    --      0.2641               363.7712                24.6803

                     49                     50                     51
                      A                      A                      A
 Frequencies --   1214.4903              1235.5597              1270.7630
 Red. masses --      3.5697                 1.9559                 2.7388
 Frc consts  --      3.1022                 1.7592                 2.6057
 IR Inten    --    163.0289                86.6301                21.2107

                     52                     53                     54
                      A                      A                      A
 Frequencies --   1280.2150              1290.6644              1328.1993
 Red. masses --      3.0119                 3.8142                 5.8987
 Frc consts  --      2.9084                 3.7435                 6.1310
 IR Inten    --     57.9824               162.4777               580.2472

                     55                     56                     57
                      A                      A                      A
 Frequencies --   1372.4793              1400.2356              1401.8433
 Red. masses --      8.6417                 1.2779                 1.2747
 Frc consts  --      9.5909                 1.4762                 1.4759
 IR Inten    --     51.2965                27.9444                24.5805

                     58                     59                     60
                      A                      A                      A
 Frequencies --   1427.3439              1445.3643              1466.7535
 Red. masses --      1.2324                 3.2578                 1.9238
 Frc consts  --      1.4793                 4.0099                 2.4386
 IR Inten    --     26.3222                60.1550                42.4237

                     61                     62                     63
                      A                      A                      A
 Frequencies --   1470.9016              1475.0836              1482.9989
 Red. masses --      1.0457                 2.0181                 1.0459
 Frc consts  --      1.3330                 2.5872                 1.3553
 IR Inten    --      0.4461               123.9997                 9.7277

                     64                     65                     66
                      A                      A                      A
 Frequencies --   1492.8774              1492.9655              1498.2354
 Red. masses --      1.0539                 1.0479                 1.0697
 Frc consts  --      1.3839                 1.3761                 1.4147
 IR Inten    --      2.5596                 0.8503                 6.0965

                     67                     68                     69
                      A                      A                      A
 Frequencies --   1499.6719              1505.0212              1528.3709
 Red. masses --      1.0596                 1.0515                 1.0547
 Frc consts  --      1.4040                 1.4033                 1.4516
 IR Inten    --      5.3571                 2.8338                18.3609

                     70                     71                     72
                      A                      A                      A
 Frequencies --   1576.9572              1763.4055              1789.5995
 Red. masses --      4.9267                11.7310                12.1927
 Frc consts  --      7.2185                21.4926                23.0071
 IR Inten    --     15.2277               413.0355               324.6749

                     73                     74                     75
                      A                      A                      A
 Frequencies --   3036.0081              3038.3214              3045.6974
 Red. masses --      1.0360                 1.0361                 1.0371
 Frc consts  --      5.6263                 5.6353                 5.6679
 IR Inten    --      8.6682                17.8218                21.1603

                     76                     77                     78
                      A                      A                      A
 Frequencies --   3047.6545              3097.0853              3105.5763
 Red. masses --      1.0299                 1.1018                 1.1010
 Frc consts  --      5.6360                 6.2268                 6.2564
 IR Inten    --     39.7043                 8.1664                 7.1676

                     79                     80                     81
                      A                      A                      A
 Frequencies --   3110.4592              3118.6308              3119.8588
 Red. masses --      1.1018                 1.1068                 1.1027
 Frc consts  --      6.2804                 6.3424                 6.3236
 IR Inten    --     39.0048                22.9989                17.9765

                     82                     83                     84
                      A                      A                      A
 Frequencies --   3133.5471              3137.4374              3153.5120
 Red. masses --      1.1023                 1.1003                 1.1058
 Frc consts  --      6.3771                 6.3816                 6.4789
 IR Inten    --      1.9633                11.9478                15.5181

                     85                     86                     87
                      A                      A                      A
 Frequencies --   3242.0946              3257.9152              3277.7052
 Red. masses --      1.0914                 1.0984                 1.1018
 Frc consts  --      6.7591                 6.8688                 6.9742
 IR Inten    --      3.1611                 0.3234                 3.4608

 - Thermochemistry -
 -------------------
 Temperature   298.150 Kelvin.  Pressure   1.00000 Atm.
 Atom     1 has atomic number  6 and mass  12.00000

 Molecular mass:   225.10011 amu.
 Principal axes and moments of inertia in atomic units:
                           1         2         3
     Eigenvalues --  2555.024254068.227895949.03834
           X            0.99993  -0.01119   0.00331
           Y            0.01118   0.99994   0.00164
           Z           -0.00333  -0.00161   0.99999
 This molecule is an asymmetric top.
 Rotational symmetry number  1.
 Warning -- assumption of classical behavior for rotation
           may cause significant error
 Rotational temperatures (Kelvin)      0.03390     0.02129     0.01456
 Rotational constants (GHZ):           0.70635     0.44362     0.30337
 Zero-point vibrational energy     658114.5 (Joules/Mol)
                                  157.29314 (Kcal/Mol)
 Warning -- explicit consideration of  25 degrees of freedom as
           vibrations may cause significant error
 Vibrational temperatures:     40.88    68.93    77.98   127.86   160.28
          (Kelvin)            176.99   200.55   229.83   247.35   289.75
                              298.63   356.13   365.39   387.45   411.86
                              455.72   474.28   507.93   559.40   590.24
                              643.12   667.37   706.81   843.29   880.69
                              923.51  1082.73  1091.21  1106.39  1127.09
                             1156.88  1210.63  1232.61  1245.32  1302.25
                             1314.42  1334.90  1337.23  1386.25  1401.76
                             1500.50  1514.24  1523.00  1568.89  1602.51
                             1684.55  1705.60  1735.24  1747.38  1777.69
                             1828.34  1841.94  1856.98  1910.98  1974.69
                             2014.62  2016.94  2053.63  2079.55  2110.33
                             2116.30  2122.31  2133.70  2147.91  2148.04
                             2155.62  2157.69  2165.39  2198.98  2268.89
                             2537.14  2574.83  4368.13  4371.46  4382.07
                             4384.89  4456.01  4468.23  4475.25  4487.01
                             4488.78  4508.47  4514.07  4537.19  4664.65
                             4687.41  4715.88

 Zero-point correction=                           0.250663 (Hartree/Particle)
 Thermal correction to Energy=                    0.267316
 Thermal correction to Enthalpy=                  0.268260
 Thermal correction to Gibbs Free Energy=         0.205971
 Sum of electronic and zero-point Energies=           -783.846162
 Sum of electronic and thermal Energies=              -783.829508
 Sum of electronic and thermal Enthalpies=            -783.828564
 Sum of electronic and thermal Free Energies=         -783.890853

                     E (Thermal)             CV                S
                      KCal/Mol        Cal/Mol-Kelvin    Cal/Mol-Kelvin
 Total                  167.744             61.235            131.100
 Electronic               0.000              0.000              0.000
 Translational            0.889              2.981             42.137
 Rotational               0.889              2.981             32.492
 Vibrational            165.966             55.274             56.471
 Vibration     1          0.593              1.984              5.937
 Vibration     2          0.595              1.978              4.902
 Vibration     3          0.596              1.976              4.658
 Vibration     4          0.602              1.957              3.685
 Vibration     5          0.607              1.940              3.244
 Vibration     6          0.610              1.930              3.052
 Vibration     7          0.615              1.914              2.812
 Vibration     8          0.622              1.892              2.553
 Vibration     9          0.626              1.877              2.414
 Vibration    10          0.638              1.838              2.120
 Vibration    11          0.641              1.829              2.065
 Vibration    12          0.661              1.767              1.748
 Vibration    13          0.665              1.756              1.703
 Vibration    14          0.674              1.730              1.601
 Vibration    15          0.684              1.699              1.496
 Vibration    16          0.704              1.642              1.327
 Vibration    17          0.712              1.616              1.262
 Vibration    18          0.729              1.569              1.153
 Vibration    19          0.757              1.494              1.005
 Vibration    20          0.774              1.448              0.926
 Vibration    21          0.806              1.368              0.805
 Vibration    22          0.821              1.330              0.755
 Vibration    23          0.847              1.269              0.680
 Vibration    24          0.943              1.061              0.474
 Vibration    25          0.971              1.006              0.429

 Optimization completed.
    -- Stationary point found.
 Normal termination of Gaussian 09 at Tue Jan 10 09:40:43 2023.
