 Gaussian 09, Revision D.01,
 Gaussian 09:  ES64L-G09RevD.01 24-Apr-2013

 ----------------------------------------------------------------------
 # opt freq=noraman b3lyp/6-311+g(d,p) pop=(npa,hirshfeld,chelpg,mbs) g
 eom=connectivity
 ----------------------------------------------------------------------

 -------------------
 Title Card Required
 -------------------
 Symbolic Z-matrix:
 Charge =  0 Multiplicity = 2

 SCF Done:  E(UB3LYP) =  -472.394064435     A.U. after   14 cycles
 SCF Done:  E(UB3LYP) =  -472.419016215     A.U. after   12 cycles
 SCF Done:  E(UB3LYP) =  -472.428254694     A.U. after   12 cycles
 SCF Done:  E(UB3LYP) =  -472.431449583     A.U. after   12 cycles
 SCF Done:  E(UB3LYP) =  -472.433703955     A.U. after   11 cycles
 SCF Done:  E(UB3LYP) =  -472.434003228     A.U. after   10 cycles
 SCF Done:  E(UB3LYP) =  -472.434121585     A.U. after   10 cycles
 SCF Done:  E(UB3LYP) =  -472.434148182     A.U. after    9 cycles
 SCF Done:  E(UB3LYP) =  -472.434149579     A.U. after   10 cycles
 SCF Done:  E(UB3LYP) =  -472.434148945     A.U. after    9 cycles
 SCF Done:  E(UB3LYP) =  -472.434148258     A.U. after    8 cycles
 SCF Done:  E(UB3LYP) =  -472.434145550     A.U. after    9 cycles
 SCF Done:  E(UB3LYP) =  -472.434144508     A.U. after    8 cycles
 SCF Done:  E(UB3LYP) =  -472.434144183     A.U. after    8 cycles
 Optimization completed.
    -- Stationary point found.
 Normal termination of Gaussian 09 at Tue Apr 23 12:37:22 2024.

 ----------------------------------------------------------------------
 #N Geom=AllCheck Guess=TCheck SCRF=Check GenChk UB3LYP/6-311+G(d,p) Fr
 eq
 ----------------------------------------------------------------------

 Structure from the checkpoint file:  "48.chk"
 -------------------
 Title Card Required
 -------------------
 Charge =  0 Multiplicity = 2

                         Standard orientation:
 ---------------------------------------------------------------------
 Center     Atomic      Atomic             Coordinates (Angstroms)
 Number     Number       Type             X           Y           Z
 ---------------------------------------------------------------------
      1          6           0       -0.641178   -0.114951    0.332753
      2          6           0        0.645045    0.623193    0.163246
      3          1           0        0.609018    1.219958   -0.760566
      4          1           0        0.759265    1.369524    0.971684
      5          1           0       -0.620839   -1.088870    0.816211
      6          6           0       -1.960724    0.551614    0.126840
      7          1           0       -2.123956    1.312610    0.912859
      8          1           0       -1.941179    1.125364   -0.812154
      9          6           0       -3.158288   -0.408510    0.116911
     10          1           0       -3.016368   -1.149139   -0.679458
     11          1           0       -3.173200   -0.971388    1.058804
     12          6           0       -4.505718    0.295020   -0.074353
     13          1           0       -4.489844    0.859892   -1.015752
     14          6           0       -5.703016   -0.662190   -0.082550
     15          1           0       -5.719789   -1.226161    0.858096
     16          1           0       -5.565696   -1.404412   -0.878429
     17          6           0       -7.046014    0.048388   -0.274435
     18          1           0       -7.877632   -0.661851   -0.276655
     19          1           0       -7.229256    0.771313    0.526905
     20          1           0       -7.073141    0.593937   -1.223101
     21          1           0       -4.643820    1.038180    0.722109
     22          6           0        1.889801   -0.275117    0.146094
     23          1           0        1.918207   -0.864584    1.071241
     24          1           0        1.797795   -0.997651   -0.673794
     25          6           0        3.202978    0.500608   -0.001275
     26          1           0        3.171217    1.094359   -0.924165
     27          1           0        3.291249    1.222916    0.820838
     28          6           0        4.445970   -0.395852   -0.021221
     29          1           0        4.479067   -0.990203    0.901313
     30          1           0        4.358651   -1.118093   -0.843494
     31          6           0        5.761203    0.377787   -0.168844
     32          1           0        5.849687    1.098629    0.653248
     33          1           0        5.728393    0.971713   -1.090454
     34          6           0        6.997144   -0.526370   -0.188822
     35          1           0        7.917070    0.055415   -0.295207
     36          1           0        7.076989   -1.107514    0.735405
     37          1           0        6.954888   -1.235660   -1.021551
 ---------------------------------------------------------------------

 SCF Done:  E(UB3LYP) =  -472.434144183     A.U. after    1 cycles

 The electronic state is 2-A.
 Alpha  occ. eigenvalues --  -10.17035 -10.16713 -10.16703 -10.16386 -10.16364
 Alpha  occ. eigenvalues --  -10.16296 -10.16293 -10.16213 -10.16207 -10.16163
 Alpha  occ. eigenvalues --  -10.15691 -10.15673  -0.81757  -0.80541  -0.78643
 Alpha  occ. eigenvalues --   -0.76159  -0.72870  -0.69258  -0.65246  -0.61243
 Alpha  occ. eigenvalues --   -0.58536  -0.57939  -0.57610  -0.56451  -0.48401
 Alpha  occ. eigenvalues --   -0.47842  -0.45560  -0.44154  -0.43877  -0.43673
 Alpha  occ. eigenvalues --   -0.41968  -0.41583  -0.40867  -0.39473  -0.38538
 Alpha  occ. eigenvalues --   -0.38020  -0.36903  -0.36001  -0.35091  -0.34182
 Alpha  occ. eigenvalues --   -0.33939  -0.33208  -0.32995  -0.32785  -0.32674
 Alpha  occ. eigenvalues --   -0.32379  -0.32256  -0.30427  -0.18523
 Alpha virt. eigenvalues --    0.00803   0.01094   0.01442   0.01879   0.02486
 Alpha virt. eigenvalues --    0.02574   0.02927   0.03422   0.03976   0.04306
 Alpha virt. eigenvalues --    0.05223   0.05578   0.05862   0.06190   0.06478

  Beta  occ. eigenvalues --  -10.16797 -10.16787 -10.16386 -10.16364 -10.16280
  Beta  occ. eigenvalues --  -10.16276 -10.16213 -10.16207 -10.16163 -10.15691
  Beta  occ. eigenvalues --  -10.15673 -10.15660  -0.81269  -0.80491  -0.78163
  Beta  occ. eigenvalues --   -0.76000  -0.72499  -0.69003  -0.65005  -0.60998
  Beta  occ. eigenvalues --   -0.58469  -0.57832  -0.57563  -0.54922  -0.48184
  Beta  occ. eigenvalues --   -0.47748  -0.45156  -0.43975  -0.43661  -0.43404
  Beta  occ. eigenvalues --   -0.41821  -0.41452  -0.40484  -0.39288  -0.38238
  Beta  occ. eigenvalues --   -0.37749  -0.36771  -0.35773  -0.34965  -0.33939
  Beta  occ. eigenvalues --   -0.33715  -0.33121  -0.32873  -0.32726  -0.32644
  Beta  occ. eigenvalues --   -0.32343  -0.32193  -0.30256
  Beta virt. eigenvalues --   -0.04695   0.00824   0.01092   0.01465   0.01928
  Beta virt. eigenvalues --    0.02488   0.02606   0.02923   0.03414   0.03987
  Beta virt. eigenvalues --    0.04367   0.05256   0.05599   0.05882   0.06175

 Mulliken charges and spin densities:
               1          2
     1  C    0.738817   1.058787
     2  C   -0.758744  -0.083823
     3  H    0.148179   0.025424
     4  H    0.155289   0.059122
     5  H    0.135575  -0.052284
     6  C   -0.747635  -0.091623
     7  H    0.154805   0.058726
     8  H    0.148964   0.026934
     9  C   -0.064926   0.006114
    10  H    0.149862   0.000640
    11  H    0.141864  -0.000769
    12  C   -0.348988  -0.004322
    13  H    0.138627   0.000269
    14  C   -0.232434  -0.001735
    15  H    0.134806   0.000084
    16  H    0.135750   0.000137
    17  C   -0.622111  -0.000430
    18  H    0.137187  -0.000013
    19  H    0.132163   0.000018
    20  H    0.132197  -0.000006
    21  H    0.136165   0.000253
    22  C   -0.043302   0.002977
    23  H    0.142476  -0.000827
    24  H    0.151075   0.000640
    25  C   -0.183519  -0.000090
    26  H    0.140125   0.000249
    27  H    0.138168   0.000235
    28  C   -0.379592  -0.004409
    29  H    0.138516   0.000085
    30  H    0.138512   0.000161
    31  C   -0.233407  -0.000327
    32  H    0.134698   0.000018
    33  H    0.134673  -0.000008
    34  C   -0.625442  -0.000210
    35  H    0.136998  -0.000002
    36  H    0.132227   0.000003
    37  H    0.132383   0.000000
 Sum of Mulliken charges =   0.00000   1.00000

 Dipole moment (field-independent basis, Debye):
    X=              0.0011    Y=              0.1907    Z=              0.0985  Tot=              0.2146
 Quadrupole moment (field-independent basis, Debye-Ang):
   XX=            -83.6369   YY=            -83.2114   ZZ=            -81.2272
   XY=              0.7364   XZ=             -0.1263   YZ=             -0.2180

  Exact polarizability: 194.316  -1.146 133.013   0.288  -0.717 121.425
 Approx polarizability: 194.883  -0.222 196.994   0.152  -0.721 188.833

 ESP charges:
               1
     1  C   -0.204595
     2  C    0.068688
     3  H   -0.003260
     4  H   -0.005876
     5  H    0.040944
     6  C    0.149650
     7  H   -0.021318
     8  H   -0.017204
     9  C   -0.033215
    10  H   -0.019613
    11  H    0.013842
    12  C    0.010766
    13  H   -0.009628
    14  C    0.219951
    15  H   -0.054563
    16  H   -0.043620
    17  C   -0.200022
    18  H    0.040165
    19  H    0.038966
    20  H    0.033495
    21  H   -0.019893
    22  C    0.099936
    23  H   -0.008267
    24  H   -0.042909
    25  C   -0.053678
    26  H   -0.001372
    27  H   -0.011487
    28  C    0.060080
    29  H   -0.027369
    30  H   -0.014552
    31  C    0.187804
    32  H   -0.040512
    33  H   -0.044568
    34  C   -0.210448
    35  H    0.046390
    36  H    0.039735
    37  H    0.037557
 Sum of ESP charges =   0.00000

 Summary of Natural Population Analysis:

                                       Natural Population
                Natural  -----------------------------------------------
    Atom  No    Charge         Core      Valence    Rydberg      Total
 -----------------------------------------------------------------------
      C    1    0.42813      0.99964     1.56529    0.00694     2.57187
      C    2   -0.24702      0.99963     2.23990    0.00749     3.24702
      H    3    0.11104      0.00000     0.38780    0.00115     0.38896
      H    4    0.12813      0.00000     0.37081    0.00105     0.37187
      H    5    0.07008      0.00000     0.42895    0.00097     0.42992
      C    6   -0.24723      0.99963     2.24008    0.00752     3.24723
      H    7    0.12789      0.00000     0.37106    0.00105     0.37211
      H    8    0.11191      0.00000     0.38694    0.00115     0.38809
      C    9   -0.18274      0.99964     2.17576    0.00734     3.18274
      H   10    0.09591      0.00000     0.40300    0.00109     0.40409
      H   11    0.09428      0.00000     0.40456    0.00116     0.40572
      C   12   -0.18989      0.99964     2.18305    0.00720     3.18989
      H   13    0.09410      0.00000     0.40475    0.00116     0.40590
      C   14   -0.19134      0.99966     2.18510    0.00657     3.19134
      H   15    0.09387      0.00000     0.40498    0.00115     0.40613
      H   16    0.09407      0.00000     0.40478    0.00115     0.40593
      C   17   -0.28624      0.99969     2.28199    0.00457     3.28624
      H   18    0.09962      0.00000     0.39977    0.00061     0.40038
      H   19    0.09637      0.00000     0.40278    0.00086     0.40363
      H   20    0.09639      0.00000     0.40275    0.00086     0.40361
      H   21    0.09396      0.00000     0.40488    0.00115     0.40604
      C   22   -0.18194      0.99964     2.17503    0.00727     3.18194
      H   23    0.09423      0.00000     0.40464    0.00113     0.40577
      H   24    0.09589      0.00000     0.40305    0.00106     0.40411
      C   25   -0.18887      0.99964     2.18202    0.00720     3.18887
      H   26    0.09428      0.00000     0.40449    0.00123     0.40572
      H   27    0.09415      0.00000     0.40462    0.00123     0.40585
      C   28   -0.18956      0.99964     2.18264    0.00729     3.18956
      H   29    0.09393      0.00000     0.40490    0.00118     0.40607
      H   30    0.09412      0.00000     0.40471    0.00118     0.40588
      C   31   -0.19119      0.99966     2.18496    0.00657     3.19119
      H   32    0.09377      0.00000     0.40509    0.00114     0.40623
      H   33    0.09380      0.00000     0.40506    0.00114     0.40620
      C   34   -0.28628      0.99969     2.28202    0.00457     3.28628
      H   35    0.09957      0.00000     0.39982    0.00061     0.40043
      H   36    0.09638      0.00000     0.40276    0.00086     0.40362
      H   37    0.09641      0.00000     0.40273    0.00086     0.40359
 =======================================================================
   * Total *    0.50000     11.99580    35.89751    0.10669    48.00000

                      1                      2                      3
                      A                      A                      A
 Frequencies --     13.9173                34.7481                37.8223
 Red. masses --      3.4488                 1.5495                 3.1142
 Frc consts  --      0.0004                 0.0011                 0.0026
 IR Inten    --      0.0031                 0.0029                 0.0001

                      4                      5                      6
                      A                      A                      A
 Frequencies --     55.2514                82.6991                85.5414
 Red. masses --      3.1943                 1.7844                 2.2580
 Frc consts  --      0.0057                 0.0072                 0.0097
 IR Inten    --      0.0038                 0.0746                 0.0101

                      7                      8                      9
                      A                      A                      A
 Frequencies --     97.5194               110.7445               134.3891
 Red. masses --      3.0739                 1.6838                 2.1056
 Frc consts  --      0.0172                 0.0122                 0.0224
 IR Inten    --      0.0238                 0.0203                 0.1110

                     10                     11                     12
                      A                      A                      A
 Frequencies --    143.1289               149.8558               178.8929
 Red. masses --      1.9818                 1.9681                 3.0502
 Frc consts  --      0.0239                 0.0260                 0.0575
 IR Inten    --      0.1222                 0.0126                 0.1747

                     13                     14                     15
                      A                      A                      A
 Frequencies --    190.9882               244.0139               246.5132
 Red. masses --      3.9021                 1.1177                 1.1105
 Frc consts  --      0.0839                 0.0392                 0.0398
 IR Inten    --      0.0098                 0.0025                 0.0072

                     16                     17                     18
                      A                      A                      A
 Frequencies --    273.9002               343.0444               365.0641
 Red. masses --      3.0032                 3.4568                 1.4558
 Frc consts  --      0.1327                 0.2397                 0.1143
 IR Inten    --      0.1491                 0.3497                20.4446

                     19                     20                     21
                      A                      A                      A
 Frequencies --    382.6940               444.2808               491.7014
 Red. masses --      2.7637                 2.8774                 3.1394
 Frc consts  --      0.2385                 0.3346                 0.4472
 IR Inten    --      1.7968                 0.0859                 0.1783

                     22                     23                     24
                      A                      A                      A
 Frequencies --    513.5276               726.1160               731.4149
 Red. masses --      2.9356                 1.0824                 1.0686
 Frc consts  --      0.4561                 0.3362                 0.3368
 IR Inten    --      0.4371                 0.3758                 5.9446

                     25                     26                     27
                      A                      A                      A
 Frequencies --    738.6454               752.4291               788.6258
 Red. masses --      1.0993                 1.1348                 1.1932
 Frc consts  --      0.3534                 0.3785                 0.4372
 IR Inten    --      0.0417                 0.5874                 0.2979

                     28                     29                     30
                      A                      A                      A
 Frequencies --    836.5351               881.1887               896.3078
 Red. masses --      1.2342                 1.2731                 2.0158
 Frc consts  --      0.5089                 0.5824                 0.9541
 IR Inten    --      0.4154                 0.5548                 2.6424

                     31                     32                     33
                      A                      A                      A
 Frequencies --    898.0533               961.3757               983.2657
 Red. masses --      1.9005                 1.2679                 2.3115
 Frc consts  --      0.9031                 0.6904                 1.3167
 IR Inten    --      0.4881                 0.8778                 0.1372

                     34                     35                     36
                      A                      A                      A
 Frequencies --    993.1799              1001.9295              1016.0073
 Red. masses --      1.8976                 2.7898                 3.7783
 Frc consts  --      1.1029                 1.6501                 2.2979
 IR Inten    --      0.0759                 0.8917                 0.3904

                     37                     38                     39
                      A                      A                      A
 Frequencies --   1044.4279              1050.9521              1060.3681
 Red. masses --      3.0101                 2.4270                 2.5443
 Frc consts  --      1.9346                 1.5794                 1.6855
 IR Inten    --      0.0575                 0.2402                 0.7608

                     40                     41                     42
                      A                      A                      A
 Frequencies --   1066.6719              1070.7299              1074.7989
 Red. masses --      2.1983                 2.2029                 1.1308
 Frc consts  --      1.4736                 1.4880                 0.7696
 IR Inten    --      0.1509                 0.2298                 0.5996

                     43                     44                     45
                      A                      A                      A
 Frequencies --   1117.6202              1122.6800              1134.2263
 Red. masses --      1.5266                 1.9368                 1.9946
 Frc consts  --      1.1235                 1.4383                 1.5119
 IR Inten    --      0.7271                 3.1304                 0.6557

                     46                     47                     48
                      A                      A                      A
 Frequencies --   1154.5878              1215.8870              1222.6865
 Red. masses --      2.9417                 1.6518                 1.4781
 Frc consts  --      2.3105                 1.4388                 1.3020
 IR Inten    --      0.0562                 0.0427                 1.0154

                     49                     50                     51
                      A                      A                      A
 Frequencies --   1224.4820              1262.7150              1269.6589
 Red. masses --      1.3368                 1.3158                 1.3099
 Frc consts  --      1.1809                 1.2361                 1.2441
 IR Inten    --      3.0571                 0.0877                 0.0355

                     52                     53                     54
                      A                      A                      A
 Frequencies --   1284.4273              1292.5980              1312.8324
 Red. masses --      1.2491                 1.2878                 1.1567
 Frc consts  --      1.2141                 1.2677                 1.1746
 IR Inten    --      0.0207                 0.0048                 0.1055

                     55                     56                     57
                      A                      A                      A
 Frequencies --   1324.4206              1326.9527              1329.1494
 Red. masses --      1.1800                 1.2043                 1.0795
 Frc consts  --      1.2195                 1.2494                 1.1237
 IR Inten    --      0.2128                 0.1066                 0.0145

                     58                     59                     60
                      A                      A                      A
 Frequencies --   1330.6154              1333.9104              1354.9224
 Red. masses --      1.0723                 1.0946                 1.3740
 Frc consts  --      1.1186                 1.1475                 1.4862
 IR Inten    --      0.4439                 0.4091                 1.8776

                     61                     62                     63
                      A                      A                      A
 Frequencies --   1379.3268              1394.7668              1399.1613
 Red. masses --      1.4391                 1.5211                 1.6181
 Frc consts  --      1.6132                 1.7434                 1.8664
 IR Inten    --      0.1116                 1.3421                 0.1159

                     64                     65                     66
                      A                      A                      A
 Frequencies --   1400.9588              1413.7817              1414.7537
 Red. masses --      1.6106                 1.2466                 1.2500
 Frc consts  --      1.8625                 1.4681                 1.4741
 IR Inten    --      0.8850                 2.6556                 2.6769

                     67                     68                     69
                      A                      A                      A
 Frequencies --   1421.5279              1461.3088              1472.7333
 Red. masses --      1.9074                 1.0762                 1.0721
 Frc consts  --      2.2709                 1.3540                 1.3700
 IR Inten    --      0.9982                 0.3138                 2.3807

                     70                     71                     72
                      A                      A                      A
 Frequencies --   1486.1202              1486.8785              1486.9980
 Red. masses --      1.0731                 1.0729                 1.0731
 Frc consts  --      1.3964                 1.3975                 1.3980
 IR Inten    --      0.0161                 0.1436                 0.0993

                     73                     74                     75
                      A                      A                      A
 Frequencies --   1490.5920              1494.9808              1499.5165
 Red. masses --      1.0671                 1.0689                 1.0397
 Frc consts  --      1.3970                 1.4075                 1.3774
 IR Inten    --      0.7139                 1.2044                 8.1487

                     76                     77                     78
                      A                      A                      A
 Frequencies --   1500.1830              1501.5008              1504.8437
 Red. masses --      1.0396                 1.0735                 1.0817
 Frc consts  --      1.3785                 1.4259                 1.4432
 IR Inten    --      8.1785                 0.9397                 0.4784

                     79                     80                     81
                      A                      A                      A
 Frequencies --   1512.4022              1513.4752              2901.4076
 Red. masses --      1.0924                 1.0941                 1.0730
 Frc consts  --      1.4722                 1.4766                 5.3217
 IR Inten    --      7.6819                10.8413                 5.7055

                     82                     83                     84
                      A                      A                      A
 Frequencies --   2905.2979              2971.8425              2977.1878
 Red. masses --      1.0745                 1.0814                 1.0797
 Frc consts  --      5.3435                 5.6270                 5.6385
 IR Inten    --     71.1069                 2.7502                32.7770

                     85                     86                     87
                      A                      A                      A
 Frequencies --   2991.7314              2992.2785              2994.4236
 Red. masses --      1.0576                 1.0578                 1.0581
 Frc consts  --      5.5774                 5.5802                 5.5897
 IR Inten    --      0.0189                 7.8734                 5.4409

                     88                     89                     90
                      A                      A                      A
 Frequencies --   3001.3005              3004.4219              3008.2114
 Red. masses --      1.0592                 1.0602                 1.0921
 Frc consts  --      5.6215                 5.6385                 5.8227
 IR Inten    --      1.2064                 0.6369                17.1198

                     91                     92                     93
                      A                      A                      A
 Frequencies --   3009.2811              3009.7916              3011.2149
 Red. masses --      1.0674                 1.0663                 1.0911
 Frc consts  --      5.6952                 5.6909                 5.8291
 IR Inten    --     28.6607               137.1027                22.9465

                     94                     95                     96
                      A                      A                      A
 Frequencies --   3017.4584              3017.7837              3019.8434
 Red. masses --      1.0356                 1.0358                 1.1020
 Frc consts  --      5.5557                 5.5576                 5.9210
 IR Inten    --     55.0335                46.6741                 0.5856

                     97                     98                     99
                      A                      A                      A
 Frequencies --   3030.5949              3037.4579              3048.7430
 Red. masses --      1.1035                 1.1049                 1.1052
 Frc consts  --      5.9716                 6.0059                 6.0524
 IR Inten    --      0.0973                 0.3832                61.1205

                    100                    101                    102
                      A                      A                      A
 Frequencies --   3051.2871              3077.9589              3078.3485
 Red. masses --      1.1053                 1.1025                 1.1024
 Frc consts  --      6.0632                 6.1537                 6.1551
 IR Inten    --    120.8073                64.9541                81.8931

                    103                    104                    105
                      A                      A                      A
 Frequencies --   3082.3764              3082.3942              3135.2813
 Red. masses --      1.1010                 1.1009                 1.0870
 Frc consts  --      6.1630                 6.1628                 6.2958
 IR Inten    --     70.3374                22.3557                21.5516

 - Thermochemistry -
 -------------------
 Temperature   298.150 Kelvin.  Pressure   1.00000 Atm.
 Atom     1 has atomic number  6 and mass  12.00000

 Molecular mass:   169.19563 amu.
 Principal axes and moments of inertia in atomic units:
                           1         2         3
     Eigenvalues --   279.46577********************
           X            1.00000  -0.00108   0.00020
           Y            0.00108   0.99981  -0.01921
           Z           -0.00018   0.01921   0.99982
 This molecule is an asymmetric top.
 Rotational symmetry number  1.
 Rotational temperatures (Kelvin)      0.30993     0.00710     0.00703
 Rotational constants (GHZ):           6.45783     0.14799     0.14655
 Zero-point vibrational energy     900198.0 (Joules/Mol)
                                  215.15250 (Kcal/Mol)
 Warning -- explicit consideration of  22 degrees of freedom as
           vibrations may cause significant error
 Vibrational temperatures:     20.02    49.99    54.42    79.49   118.99
          (Kelvin)            123.07   140.31   159.34   193.36   205.93
                              215.61   257.39   274.79   351.08   354.68
                              394.08   493.56   525.25   550.61   639.22
                              707.45   738.85  1044.72  1052.34  1062.74
                             1082.58  1134.66  1203.59  1267.83  1289.59
                             1292.10  1383.20  1414.70  1428.96  1441.55
                             1461.81  1502.70  1512.08  1525.63  1534.70
                             1540.54  1546.39  1608.00  1615.28  1631.90
                             1661.19  1749.39  1759.17  1761.75  1816.76
                             1826.75  1848.00  1859.76  1888.87  1905.54
                             1909.19  1912.35  1914.46  1919.20  1949.43
                             1984.54  2006.76  2013.08  2015.66  2034.11
                             2035.51  2045.26  2102.49  2118.93  2138.19
                             2139.28  2139.46  2144.63  2150.94  2157.47
                             2158.43  2160.32  2165.13  2176.01  2177.55
                             4174.47  4180.07  4275.81  4283.50  4304.43
                             4305.22  4308.30  4318.20  4322.69  4328.14
                             4329.68  4330.41  4332.46  4341.44  4341.91
                             4344.88  4360.34  4370.22  4386.46  4390.12
                             4428.49  4429.05  4434.85  4434.87  4510.96

 Zero-point correction=                           0.342867 (Hartree/Particle)
 Thermal correction to Energy=                    0.359930
 Thermal correction to Enthalpy=                  0.360874
 Thermal correction to Gibbs Free Energy=         0.294766
 Sum of electronic and zero-point Energies=           -472.091277
 Sum of electronic and thermal Energies=              -472.074214
 Sum of electronic and thermal Enthalpies=            -472.073270
 Sum of electronic and thermal Free Energies=         -472.139378

                     E (Thermal)             CV                S
                      KCal/Mol        Cal/Mol-Kelvin    Cal/Mol-Kelvin
 Total                  225.859             59.481            139.135
 Electronic               0.000              0.000              1.377
 Translational            0.889              2.981             41.286
 Rotational               0.889              2.981             32.107
 Vibrational            224.082             53.520             64.366
 Vibration     1          0.593              1.986              7.354
 Vibration     2          0.594              1.983              5.538
 Vibration     3          0.594              1.982              5.370
 Vibration     4          0.596              1.975              4.620
 Vibration     5          0.600              1.961              3.826
 Vibration     6          0.601              1.959              3.760
 Vibration     7          0.603              1.951              3.503
 Vibration     8          0.607              1.941              3.256
 Vibration     9          0.613              1.919              2.882
 Vibration    10          0.616              1.910              2.762
 Vibration    11          0.618              1.903              2.674
 Vibration    12          0.629              1.868              2.340
 Vibration    13          0.634              1.852              2.218
 Vibration    14          0.659              1.773              1.773
 Vibration    15          0.661              1.769              1.755
 Vibration    16          0.676              1.722              1.571
 Vibration    17          0.722              1.589              1.198
 Vibration    18          0.738              1.544              1.100
 Vibration    19          0.752              1.507              1.028
 Vibration    20          0.804              1.374              0.813
 Vibration    21          0.847              1.268              0.679
 Vibration    22          0.869              1.220              0.625

 Optimization completed.
    -- Stationary point found.
 Normal termination of Gaussian 09 at Tue Apr 23 12:53:06 2024.
