 Gaussian 09, Revision D.01,
 Gaussian 09:  ES64L-G09RevD.01 24-Apr-2013

 ---------------------------------------------------------------------
 # b3lyp/6-311+g(d,p) geom=connectivity pop=(hirshfeld,chelpg,mbs,npa)
 ---------------------------------------------------------------------

 --------
 Table9_7
 --------
 Symbolic Z-matrix:
 Charge =  0 Multiplicity = 1

                         Standard orientation:
 ---------------------------------------------------------------------
 Center     Atomic      Atomic             Coordinates (Angstroms)
 Number     Number       Type             X           Y           Z
 ---------------------------------------------------------------------
      1          6           0        0.932042    0.985863   -0.000156
      2          6           0        0.879038   -0.435849   -0.000288
      3          6           0        2.071139   -1.171009   -0.000274
      4          6           0        3.277822   -0.491004   -0.000227
      5          6           0        3.314310    0.920576    0.000033
      6          6           0        2.146304    1.666493    0.000063
      7          6           0       -1.222889    0.373746   -0.000233
      8          6           0       -0.501190   -0.797674   -0.000183
      9          1           0        2.071614   -2.251529   -0.000270
     10          1           0        4.259944    1.438906    0.000331
     11          1           0        2.189058    2.746779    0.000231
     12          1           0       -0.674748    2.403044   -0.000449
     13          1           0       -0.919930   -1.787742    0.000235
     14          7           0       -0.360319    1.448646   -0.000275
     15          6           0       -2.662191    0.639107    0.000070
     16          8           0       -3.130359    1.759685    0.000003
     17          8           0       -3.396506   -0.486933    0.000477
     18          6           0       -4.833742   -0.308367    0.000445
     19          6           0       -5.465667   -1.682641   -0.000292
     20          1           0       -5.111898    0.270334   -0.879725
     21          1           0       -5.111912    0.269326    0.881288
     22          1           0       -6.551531   -1.584456   -0.000180
     23          1           0       -5.173420   -2.247464   -0.884875
     24          1           0       -5.173333   -2.248487    0.883608
     25          8           0        4.404713   -1.272971    0.000156
     26          6           0        5.674019   -0.641257    0.000309
     27          1           0        6.406188   -1.443959    0.000387
     28          1           0        5.817817   -0.025711   -0.891317
     29          1           0        5.817651   -0.025717    0.891964
 ---------------------------------------------------------------------

 SCF Done:  E(RB3LYP) =  -745.748153928     A.U. after   15 cycles

 The electronic state is 1-A.
 Alpha  occ. eigenvalues --  -19.17253 -19.15143 -19.11567 -14.36246 -10.30994
 Alpha  occ. eigenvalues --  -10.23423 -10.23289 -10.22539 -10.21904 -10.21324
 Alpha  occ. eigenvalues --  -10.18500 -10.18208 -10.18037 -10.17595 -10.17313
 Alpha  occ. eigenvalues --  -10.17137  -1.11492  -1.06681  -1.02896  -0.99289
 Alpha  occ. eigenvalues --   -0.85370  -0.80376  -0.78619  -0.76230  -0.74275
 Alpha  occ. eigenvalues --   -0.70027  -0.67651  -0.63468  -0.61301  -0.59142
 Alpha  occ. eigenvalues --   -0.58002  -0.55765  -0.52852  -0.51440  -0.50368
 Alpha  occ. eigenvalues --   -0.48099  -0.47797  -0.47284  -0.45193  -0.44939
 Alpha  occ. eigenvalues --   -0.44439  -0.43049  -0.42319  -0.41989  -0.40934
 Alpha  occ. eigenvalues --   -0.40362  -0.39877  -0.37608  -0.36624  -0.36583
 Alpha  occ. eigenvalues --   -0.36208  -0.33363  -0.31454  -0.30977  -0.29244
 Alpha  occ. eigenvalues --   -0.29174  -0.22838  -0.21008
 Alpha virt. eigenvalues --   -0.05891  -0.00085  -0.00062   0.00404   0.01151
 Alpha virt. eigenvalues --    0.02146   0.02267   0.02769   0.03490   0.03627
 Alpha virt. eigenvalues --    0.03802   0.04378   0.04559   0.05608   0.06316

 Mulliken charges:
               1
     1  C   -0.827806
     2  C    1.404451
     3  C   -0.782267
     4  C   -0.555852
     5  C    0.295489
     6  C   -0.962094
     7  C    0.339038
     8  C    0.552726
     9  H    0.117442
    10  H    0.122340
    11  H    0.111667
    12  H    0.304516
    13  H    0.126091
    14  N   -0.117829
    15  C    0.020286
    16  O   -0.289502
    17  O   -0.113223
    18  C    0.021865
    19  C   -0.528651
    20  H    0.160060
    21  H    0.160070
    22  H    0.146808
    23  H    0.147452
    24  H    0.147450
    25  O   -0.187773
    26  C   -0.253115
    27  H    0.156966
    28  H    0.141695
    29  H    0.141699
 Sum of Mulliken charges =   0.00000

 Dipole moment (field-independent basis, Debye):
    X=              0.6089    Y=              0.1930    Z=              0.0004  Tot=              0.6388
 Quadrupole moment (field-independent basis, Debye-Ang):
   XX=            -71.7987   YY=            -92.5062   ZZ=            -97.2508
   XY=             12.2125   XZ=              0.0018   YZ=             -0.0007

 ESP charges:
               1
     1  C    0.203608
     2  C    0.263013
     3  C   -0.473615
     4  C    0.440225
     5  C   -0.245696
     6  C   -0.241425
     7  C   -0.093722
     8  C   -0.267749
     9  H    0.190792
    10  H    0.137546
    11  H    0.144603
    12  H    0.351558
    13  H    0.148496
    14  N   -0.424154
    15  C    0.852642
    16  O   -0.612638
    17  O   -0.518505
    18  C    0.411786
    19  C   -0.228672
    20  H   -0.013611
    21  H   -0.013621
    22  H    0.039276
    23  H    0.071868
    24  H    0.071943
    25  O   -0.428726
    26  C    0.217472
    27  H    0.034248
    28  H   -0.008515
    29  H   -0.008426
 Sum of ESP charges =   0.00000

 Summary of Natural Population Analysis:

                                       Natural Population
                Natural  -----------------------------------------------
    Atom  No    Charge         Core      Valence    Rydberg      Total
 -----------------------------------------------------------------------
      C    1    0.15180      1.99898     3.82902    0.02020     5.84820
      C    2   -0.08420      1.99902     4.06959    0.01559     6.08420
      C    3   -0.22276      1.99899     4.20710    0.01667     6.22276
      C    4    0.30352      1.99879     3.67494    0.02275     5.69648
      C    5   -0.27114      1.99910     4.25641    0.01563     6.27114
      C    6   -0.21723      1.99909     4.20141    0.01674     6.21723
      C    7    0.05746      1.99899     3.91993    0.02362     5.94254
      C    8   -0.21901      1.99901     4.20479    0.01522     6.21901
      H    9    0.21934      0.00000     0.77743    0.00323     0.78066
      H   10    0.21126      0.00000     0.78690    0.00183     0.78874
      H   11    0.21023      0.00000     0.78785    0.00192     0.78977
      H   12    0.42335      0.00000     0.57413    0.00252     0.57665
      H   13    0.22977      0.00000     0.76847    0.00176     0.77023
      N   14   -0.52680      1.99926     5.51247    0.01508     7.52680
      C   15    0.77200      1.99924     3.18220    0.04656     5.22800
      O   16   -0.61666      1.99975     6.60578    0.01113     8.61666
      O   17   -0.55420      1.99971     6.53711    0.01738     8.55420
      C   18   -0.03672      1.99921     4.01805    0.01946     6.03672
      C   19   -0.59197      1.99936     4.58386    0.00875     6.59197
      H   20    0.18573      0.00000     0.81209    0.00218     0.81427
      H   21    0.18570      0.00000     0.81213    0.00218     0.81430
      H   22    0.20757      0.00000     0.79123    0.00120     0.79243
      H   23    0.20605      0.00000     0.79229    0.00166     0.79395
      H   24    0.20606      0.00000     0.79229    0.00165     0.79394
      O   25   -0.54767      1.99971     6.53071    0.01725     8.54767
      C   26   -0.20598      1.99926     4.19080    0.01592     6.20598
      H   27    0.19095      0.00000     0.80795    0.00110     0.80905
      H   28    0.16683      0.00000     0.83078    0.00238     0.83317
      H   29    0.16683      0.00000     0.83079    0.00238     0.83317
 =======================================================================
   * Total *    0.00009     31.98746    83.68851    0.32394   115.99991

 Normal termination of Gaussian 09 at Fri Jul 23 17:41:22 2021.
