 Gaussian 09, Revision D.01,
 Gaussian 09:  ES64L-G09RevD.01 24-Apr-2013

 ----------------------------------------------------------------------
 # opt=rcfc freq=noraman b3lyp/6-311+g(d,p) pop=(npa,hirshfeld,chelpg,m
 bs) geom=allcheck guess=read
 ----------------------------------------------------------------------

 Structure from the checkpoint file:  "58.chk"
 -------------------
 Title Card Required
 -------------------
 Charge =  0 Multiplicity = 1

 SCF Done:  E(RB3LYP) =  -468.485028464     A.U. after    1 cycles
 SCF Done:  E(RB3LYP) =  -468.485028423     A.U. after    8 cycles
 Optimization completed.
    -- Stationary point found.
 Normal termination of Gaussian 09 at Wed Apr 24 12:52:22 2024.

 ----------------------------------------------------------------------
 #N Geom=AllCheck Guess=TCheck SCRF=Check GenChk RB3LYP/6-311+G(d,p) Fr
 eq
 ----------------------------------------------------------------------

 Structure from the checkpoint file:  "58.chk"
 -------------------
 Title Card Required
 -------------------
 Charge =  0 Multiplicity = 1

                         Standard orientation:
 ---------------------------------------------------------------------
 Center     Atomic      Atomic             Coordinates (Angstroms)
 Number     Number       Type             X           Y           Z
 ---------------------------------------------------------------------
      1          6           0       -1.634835   -1.497218    0.782792
      2          6           0       -1.010423   -0.202991    1.323052
      3          6           0       -0.598844    0.775249    0.210526
      4          6           0       -1.814229    1.044505   -0.702747
      5          6           0       -2.472056   -0.232538   -1.251004
      6          6           0       -2.841292   -1.201630   -0.119263
      7          1           0       -1.740496    0.319197    1.951123
      8          1           0       -0.888078   -2.069599    0.218919
      9          1           0       -1.937581   -2.133005    1.620762
     10          1           0       -2.546531    1.600052   -0.105944
     11          1           0       -1.512660    1.701886   -1.528269
     12          1           0       -1.796186   -0.732351   -1.954605
     13          1           0       -3.640401   -0.757142    0.487851
     14          1           0       -3.244414   -2.131039   -0.534631
     15          8           0       -0.249770    1.992486    0.904486
     16          1           0       -0.031553    2.664055    0.248335
     17          1           0       -3.364471    0.035876   -1.825683
     18          1           0       -0.151644   -0.417814    1.963349
     19          6           0        0.617357    0.300042   -0.616405
     20          1           0        0.852169    1.101681   -1.331437
     21          1           0        0.333427   -0.562609   -1.228405
     22          6           0        1.881601   -0.039985    0.181707
     23          1           0        2.088713    0.766238    0.893144
     24          1           0        1.712192   -0.943214    0.779254
     25          6           0        3.107346   -0.263539   -0.712675
     26          1           0        2.885799   -1.048849   -1.446270
     27          1           0        3.300606    0.646972   -1.293414
     28          6           0        4.366309   -0.641953    0.073049
     29          1           0        5.224726   -0.782197   -0.589930
     30          1           0        4.628380    0.135989    0.796955
     31          1           0        4.220556   -1.573666    0.628812
 ---------------------------------------------------------------------

 SCF Done:  E(RB3LYP) =  -468.485028423     A.U. after    1 cycles

 The electronic state is 1-A.
 Alpha  occ. eigenvalues --  -19.11664 -10.22506 -10.16802 -10.16601 -10.16593
 Alpha  occ. eigenvalues --  -10.16546 -10.16518 -10.16493 -10.16050 -10.15974
 Alpha  occ. eigenvalues --  -10.15693  -1.01989  -0.83255  -0.79695  -0.75154
 Alpha  occ. eigenvalues --   -0.74549  -0.71023  -0.64189  -0.62054  -0.59747
 Alpha  occ. eigenvalues --   -0.57970  -0.53821  -0.50060  -0.47711  -0.47023
 Alpha  occ. eigenvalues --   -0.45266  -0.44654  -0.42447  -0.42253  -0.41481
 Alpha  occ. eigenvalues --   -0.39254  -0.38658  -0.38021  -0.37409  -0.35566
 Alpha  occ. eigenvalues --   -0.34366  -0.34161  -0.33502  -0.33064  -0.32650
 Alpha  occ. eigenvalues --   -0.32176  -0.31552  -0.29804  -0.26986
 Alpha virt. eigenvalues --   -0.00162   0.00865   0.01072   0.01750   0.02415
 Alpha virt. eigenvalues --    0.03232   0.03501   0.04436   0.04660   0.05532
 Alpha virt. eigenvalues --    0.06077   0.06296   0.06986   0.07631   0.08222

 Mulliken charges:
               1
     1  C   -0.326423
     2  C   -0.209674
     3  C    0.218681
     4  C   -0.266349
     5  C   -0.256259
     6  C   -0.402725
     7  H    0.159018
     8  H    0.139685
     9  H    0.144427
    10  H    0.165704
    11  H    0.131569
    12  H    0.137992
    13  H    0.143332
    14  H    0.146055
    15  O   -0.228569
    16  H    0.221531
    17  H    0.144104
    18  H    0.148016
    19  C   -0.356654
    20  H    0.144510
    21  H    0.142241
    22  C   -0.274740
    23  H    0.165440
    24  H    0.133901
    25  C   -0.229406
    26  H    0.133752
    27  H    0.135093
    28  C   -0.608593
    29  H    0.136473
    30  H    0.135281
    31  H    0.132586
 Sum of Mulliken charges =   0.00000

 Dipole moment (field-independent basis, Debye):
    X=             -0.1889    Y=             -0.4964    Z=             -1.5470  Tot=              1.6356
 Quadrupole moment (field-independent basis, Debye-Ang):
   XX=            -72.4081   YY=            -71.6599   ZZ=            -75.0522
   XY=              1.1284   XZ=             -0.0802   YZ=             -4.0337

  Exact polarizability: 138.330   1.398 114.932   1.974  -2.334 111.839
 Approx polarizability: 165.422   1.201 167.566  -0.525  -0.372 165.990

 ESP charges:
               1
     1  C   -0.017024
     2  C    0.005000
     3  C    0.621595
     4  C   -0.155252
     5  C    0.095179
     6  C   -0.012722
     7  H    0.009408
     8  H   -0.003766
     9  H    0.000538
    10  H    0.016116
    11  H    0.000799
    12  H   -0.038052
    13  H   -0.000453
    14  H   -0.007264
    15  O   -0.771732
    16  H    0.402686
    17  H   -0.012345
    18  H   -0.013315
    19  C   -0.283448
    20  H    0.020027
    21  H    0.059607
    22  C    0.109496
    23  H    0.000652
    24  H   -0.021250
    25  C    0.129471
    26  H   -0.032519
    27  H   -0.022683
    28  C   -0.203346
    29  H    0.049890
    30  H    0.035079
    31  H    0.039629
 Sum of ESP charges =   0.00000

 Summary of Natural Population Analysis:

                                       Natural Population
                Natural  -----------------------------------------------
    Atom  No    Charge         Core      Valence    Rydberg      Total
 -----------------------------------------------------------------------
      C    1   -0.38644      1.99928     4.37213    0.01503     6.38644
      C    2   -0.40082      1.99917     4.38123    0.02042     6.40082
      C    3    0.27328      1.99901     3.70109    0.02662     5.72672
      C    4   -0.40587      1.99918     4.38729    0.01940     6.40587
      C    5   -0.38486      1.99928     4.37077    0.01481     6.38486
      C    6   -0.38282      1.99929     4.36894    0.01458     6.38282
      H    7    0.20824      0.00000     0.78986    0.00190     0.79176
      H    8    0.18833      0.00000     0.80948    0.00219     0.81167
      H    9    0.20266      0.00000     0.79559    0.00175     0.79734
      H   10    0.20697      0.00000     0.79098    0.00206     0.79303
      H   11    0.19516      0.00000     0.80292    0.00192     0.80484
      H   12    0.18898      0.00000     0.80884    0.00218     0.81102
      H   13    0.18929      0.00000     0.80841    0.00231     0.81071
      H   14    0.20026      0.00000     0.79822    0.00152     0.79974
      O   15   -0.75587      1.99978     6.74182    0.01427     8.75587
      H   16    0.45307      0.00000     0.54244    0.00450     0.54693
      H   17    0.20208      0.00000     0.79607    0.00185     0.79792
      H   18    0.21091      0.00000     0.78759    0.00150     0.78909
      C   19   -0.40351      1.99917     4.38543    0.01891     6.40351
      H   20    0.18930      0.00000     0.80811    0.00259     0.81070
      H   21    0.20024      0.00000     0.79720    0.00256     0.79976
      C   22   -0.39126      1.99928     4.37632    0.01567     6.39126
      H   23    0.20639      0.00000     0.79129    0.00232     0.79361
      H   24    0.18990      0.00000     0.80787    0.00223     0.81010
      C   25   -0.37970      1.99932     4.36753    0.01285     6.37970
      H   26    0.18587      0.00000     0.81194    0.00219     0.81413
      H   27    0.18619      0.00000     0.81167    0.00214     0.81381
      C   28   -0.57182      1.99938     4.56342    0.00902     6.57182
      H   29    0.19880      0.00000     0.79995    0.00125     0.80120
      H   30    0.19424      0.00000     0.80399    0.00177     0.80576
      H   31    0.19283      0.00000     0.80543    0.00174     0.80717
 =======================================================================
   * Total *    0.00000     21.99212    65.78383    0.22405    88.00000

                      1                      2                      3
                      A                      A                      A
 Frequencies --     55.6220                67.1147               106.0367
 Red. masses --      3.2324                 1.6189                 2.7629
 Frc consts  --      0.0059                 0.0043                 0.0183
 IR Inten    --      0.1023                 0.0116                 0.5226

                      4                      5                      6
                      A                      A                      A
 Frequencies --    128.8467               166.6433               208.3795
 Red. masses --      2.7615                 2.3292                 2.4768
 Frc consts  --      0.0270                 0.0381                 0.0634
 IR Inten    --      0.1435                 2.5671                 0.1561

                      7                      8                      9
                      A                      A                      A
 Frequencies --    247.0229               265.1963               279.8472
 Red. masses --      1.1070                 2.6493                 1.1253
 Frc consts  --      0.0398                 0.1098                 0.0519
 IR Inten    --      0.0473                 0.0964                88.9574

                     10                     11                     12
                      A                      A                      A
 Frequencies --    305.6888               326.5697               361.8706
 Red. masses --      1.9825                 2.9302                 1.9103
 Frc consts  --      0.1091                 0.1841                 0.1474
 IR Inten    --     12.5360                25.9847                 1.2069

                     13                     14                     15
                      A                      A                      A
 Frequencies --    378.4679               451.7187               461.8263
 Red. masses --      3.1321                 2.5840                 3.0983
 Frc consts  --      0.2643                 0.3107                 0.3893
 IR Inten    --      4.8284                 1.4170                 2.0940

                     16                     17                     18
                      A                      A                      A
 Frequencies --    475.3360               528.4305               561.7878
 Red. masses --      2.4845                 3.1691                 1.7928
 Frc consts  --      0.3307                 0.5214                 0.3334
 IR Inten    --      3.6938                 4.4460                 2.7068

                     19                     20                     21
                      A                      A                      A
 Frequencies --    735.1908               741.1798               791.1942
 Red. masses --      2.2439                 1.3128                 1.3171
 Frc consts  --      0.7146                 0.4249                 0.4858
 IR Inten    --      1.5670                 1.4512                 0.6081

                     22                     23                     24
                      A                      A                      A
 Frequencies --    794.1389               831.7104               860.9202
 Red. masses --      1.3996                 2.3630                 1.6399
 Frc consts  --      0.5200                 0.9631                 0.7161
 IR Inten    --      1.9596                 0.0823                 5.6678

                     25                     26                     27
                      A                      A                      A
 Frequencies --    898.1475               909.2006               921.1111
 Red. masses --      1.9752                 1.8049                 1.8244
 Frc consts  --      0.9388                 0.8791                 0.9120
 IR Inten    --      3.6734                11.0727                 5.0928

                     28                     29                     30
                      A                      A                      A
 Frequencies --    947.1200               968.8654               976.0965
 Red. masses --      1.4866                 1.7795                 2.0693
 Frc consts  --      0.7857                 0.9842                 1.1616
 IR Inten    --      4.1872                 5.3067                19.9807

                     31                     32                     33
                      A                      A                      A
 Frequencies --   1026.8152              1033.7621              1048.2574
 Red. masses --      2.6926                 1.7467                 2.2939
 Frc consts  --      1.6726                 1.0998                 1.4851
 IR Inten    --      0.3646                20.6165                12.5002

                     34                     35                     36
                      A                      A                      A
 Frequencies --   1065.6738              1068.7622              1089.0553
 Red. masses --      2.4730                 1.5926                 2.2755
 Frc consts  --      1.6547                 1.0718                 1.5901
 IR Inten    --      1.0433                 1.7109                 0.4407

                     37                     38                     39
                      A                      A                      A
 Frequencies --   1111.1507              1146.8139              1162.9607
 Red. masses --      1.4332                 1.5569                 1.5803
 Frc consts  --      1.0426                 1.2064                 1.2593
 IR Inten    --      3.4606                41.9001                 7.4063

                     40                     41                     42
                      A                      A                      A
 Frequencies --   1177.9363              1193.4590              1243.2949
 Red. masses --      1.5535                 2.0809                 1.4016
 Frc consts  --      1.2700                 1.7463                 1.2765
 IR Inten    --      1.1632                 8.9326                 5.9257

                     43                     44                     45
                      A                      A                      A
 Frequencies --   1273.9556              1284.6208              1291.2157
 Red. masses --      1.2860                 1.3004                 1.2518
 Frc consts  --      1.2297                 1.2644                 1.2296
 IR Inten    --      5.0235                 2.2046                 2.7361

                     46                     47                     48
                      A                      A                      A
 Frequencies --   1306.8396              1315.4722              1333.7386
 Red. masses --      1.4544                 1.2286                 1.0897
 Frc consts  --      1.4635                 1.2526                 1.1421
 IR Inten    --      5.2116                 8.5207                 0.7149

                     49                     50                     51
                      A                      A                      A
 Frequencies --   1345.2816              1359.8003              1369.8663
 Red. masses --      1.3440                 1.4330                 1.4363
 Frc consts  --      1.4331                 1.5611                 1.5880
 IR Inten    --      1.4751                 7.8298                 6.7698

                     52                     53                     54
                      A                      A                      A
 Frequencies --   1373.4743              1378.1074              1380.3397
 Red. masses --      1.4739                 1.4546                 1.4861
 Frc consts  --      1.6381                 1.6277                 1.6682
 IR Inten    --      8.7021                 1.5547                 2.2816

                     55                     56                     57
                      A                      A                      A
 Frequencies --   1396.7650              1408.4466              1413.7760
 Red. masses --      1.6015                 1.5734                 1.2672
 Frc consts  --      1.8408                 1.8389                 1.4923
 IR Inten    --      0.5977                 5.0279                 4.0917

                     58                     59                     60
                      A                      A                      A
 Frequencies --   1480.7391              1485.8502              1489.3553
 Red. masses --      1.0832                 1.0911                 1.0789
 Frc consts  --      1.3993                 1.4193                 1.4100
 IR Inten    --      1.2204                 5.6672                 0.5773

                     61                     62                     63
                      A                      A                      A
 Frequencies --   1490.6260              1495.9438              1500.3792
 Red. masses --      1.0669                 1.0904                 1.0399
 Frc consts  --      1.3968                 1.4377                 1.3793
 IR Inten    --      2.6592                 4.4955                 8.0958

                     64                     65                     66
                      A                      A                      A
 Frequencies --   1502.0929              1502.9419              1511.6396
 Red. masses --      1.0728                 1.0800                 1.0928
 Frc consts  --      1.4262                 1.4373                 1.4712
 IR Inten    --      2.1888                12.6732                 9.1867

                     67                     68                     69
                      A                      A                      A
 Frequencies --   1515.6012              2985.2612              3000.4213
 Red. masses --      1.0936                 1.0697                 1.0604
 Frc consts  --      1.4801                 5.6167                 5.6247
 IR Inten    --      2.6490                11.2793                17.5045

                     70                     71                     72
                      A                      A                      A
 Frequencies --   3001.2156              3003.0847              3010.4516
 Red. masses --      1.0657                 1.0644                 1.0644
 Frc consts  --      5.6558                 5.6559                 5.6834
 IR Inten    --     41.2724                25.5578                23.1977

                     73                     74                     75
                      A                      A                      A
 Frequencies --   3015.2422              3016.9984              3019.6089
 Red. masses --      1.0648                 1.0485                 1.0664
 Frc consts  --      5.7038                 5.6232                 5.7287
 IR Inten    --     16.0572                21.7967                39.1430

                     76                     77                     78
                      A                      A                      A
 Frequencies --   3024.9020              3030.9492              3041.2689
 Red. masses --      1.0807                 1.0681                 1.0923
 Frc consts  --      5.8261                 5.7812                 5.9528
 IR Inten    --     34.1824                12.8887                25.7544

                     79                     80                     81
                      A                      A                      A
 Frequencies --   3043.7027              3049.4175              3053.1805
 Red. masses --      1.0946                 1.0928                 1.0973
 Frc consts  --      5.9746                 5.9872                 6.0269
 IR Inten    --     20.2273                60.8665                28.2539

                     82                     83                     84
                      A                      A                      A
 Frequencies --   3060.3042              3066.2873              3079.3987
 Red. masses --      1.1014                 1.1004                 1.1004
 Frc consts  --      6.0772                 6.0956                 6.1478
 IR Inten    --     96.9812                35.1043                55.1505

                     85                     86                     87
                      A                      A                      A
 Frequencies --   3081.3507              3082.8076              3809.9461
 Red. masses --      1.1000                 1.1011                 1.0661
 Frc consts  --      6.1534                 6.1657                 9.1181
 IR Inten    --     65.3770                45.2713                11.7346

 - Thermochemistry -
 -------------------
 Temperature   298.150 Kelvin.  Pressure   1.00000 Atm.
 Atom     1 has atomic number  6 and mass  12.00000

 Molecular mass:   156.15142 amu.
 Principal axes and moments of inertia in atomic units:
                           1         2         3
     Eigenvalues --   998.413653245.209193471.60265
           X            1.00000  -0.00102   0.00232
           Y            0.00118   0.99741  -0.07186
           Z           -0.00224   0.07186   0.99741
 This molecule is an asymmetric top.
 Rotational symmetry number  1.
 Warning -- assumption of classical behavior for rotation
           may cause significant error
 Rotational temperatures (Kelvin)      0.08675     0.02669     0.02495
 Rotational constants (GHZ):           1.80761     0.55612     0.51986
 Zero-point vibrational energy     752462.4 (Joules/Mol)
                                  179.84283 (Kcal/Mol)
 Warning -- explicit consideration of  18 degrees of freedom as
           vibrations may cause significant error
 Vibrational temperatures:     80.03    96.56   152.56   185.38   239.76
          (Kelvin)            299.81   355.41   381.56   402.64   439.82
                              469.86   520.65   544.53   649.92   664.46
                              683.90   760.29   808.29  1057.77  1066.39
                             1138.35  1142.59  1196.64  1238.67  1292.23
                             1308.14  1325.27  1362.69  1393.98  1404.38
                             1477.36  1487.35  1508.21  1533.27  1537.71
                             1566.91  1598.70  1650.01  1673.24  1694.79
                             1717.12  1788.82  1832.94  1848.28  1857.77
                             1880.25  1892.67  1918.95  1935.56  1956.45
                             1970.93  1976.12  1982.79  1986.00  2009.63
                             2026.44  2034.11  2130.45  2137.80  2142.85
                             2144.68  2152.33  2158.71  2161.17  2162.40
                             2174.91  2180.61  4295.12  4316.93  4318.07
                             4320.76  4331.36  4338.26  4340.78  4344.54
                             4352.15  4360.85  4375.70  4379.20  4387.43
                             4392.84  4403.09  4411.70  4430.56  4433.37
                             4435.47  5481.66

 Zero-point correction=                           0.286598 (Hartree/Particle)
 Thermal correction to Energy=                    0.298903
 Thermal correction to Enthalpy=                  0.299847
 Thermal correction to Gibbs Free Energy=         0.248598
 Sum of electronic and zero-point Energies=           -468.198431
 Sum of electronic and thermal Energies=              -468.186126
 Sum of electronic and thermal Enthalpies=            -468.185181
 Sum of electronic and thermal Free Energies=         -468.236430

                     E (Thermal)             CV                S
                      KCal/Mol        Cal/Mol-Kelvin    Cal/Mol-Kelvin
 Total                  187.564             48.009            107.863
 Electronic               0.000              0.000              0.000
 Translational            0.889              2.981             41.046
 Rotational               0.889              2.981             30.798
 Vibrational            185.787             42.048             36.018
 Vibration     1          0.596              1.975              4.607
 Vibration     2          0.598              1.970              4.236
 Vibration     3          0.605              1.944              3.340
 Vibration     4          0.611              1.924              2.963
 Vibration     5          0.624              1.883              2.473
 Vibration     6          0.642              1.828              2.058
 Vibration     7          0.661              1.768              1.752
 Vibration     8          0.671              1.737              1.627
 Vibration     9          0.680              1.711              1.535
 Vibration    10          0.696              1.663              1.386
 Vibration    11          0.710              1.622              1.277
 Vibration    12          0.736              1.551              1.114
 Vibration    13          0.749              1.516              1.045
 Vibration    14          0.810              1.357              0.791
 Vibration    15          0.820              1.335              0.761
 Vibration    16          0.832              1.305              0.723
 Vibration    17          0.883              1.187              0.591
 Vibration    18          0.917              1.114              0.520

 Optimization completed.
    -- Stationary point found.
 Normal termination of Gaussian 09 at Wed Apr 24 12:57:49 2024.
