 Gaussian 09, Revision D.01,
 Gaussian 09:  ES64L-G09RevD.01 24-Apr-2013

 ----------------------------------------------------------------------
 # opt=rcfc freq=noraman b3lyp/6-311+g(d,p) pop=(npa,hirshfeld,chelpg,m
 bs) geom=allcheck guess=read
 ----------------------------------------------------------------------

 Structure from the checkpoint file:  "59.chk"
 -------------------
 Title Card Required
 -------------------
 Charge =  0 Multiplicity = 1

 SCF Done:  E(RB3LYP) =  -463.860729236     A.U. after    1 cycles
 SCF Done:  E(RB3LYP) =  -463.860729279     A.U. after    7 cycles
 Optimization completed.
    -- Stationary point found.
 Normal termination of Gaussian 09 at Wed Apr 24 12:52:12 2024.

 ----------------------------------------------------------------------
 #N Geom=AllCheck Guess=TCheck SCRF=Check GenChk RB3LYP/6-311+G(d,p) Fr
 eq
 ----------------------------------------------------------------------

 Structure from the checkpoint file:  "59.chk"
 -------------------
 Title Card Required
 -------------------
 Charge =  0 Multiplicity = 1

                         Standard orientation:
 ---------------------------------------------------------------------
 Center     Atomic      Atomic             Coordinates (Angstroms)
 Number     Number       Type             X           Y           Z
 ---------------------------------------------------------------------
      1          6           0        3.147672   -0.126280    0.746306
      2          6           0        1.940530   -0.671971    0.000048
      3          6           0        3.147640   -0.126375   -0.746335
      4          1           0        3.010967    0.824743    1.245352
      5          1           0        3.762361   -0.847176    1.271004
      6          1           0        1.787349   -1.742540    0.000119
      7          1           0        3.762306   -0.847337   -1.270970
      8          1           0        3.010912    0.824585   -1.245495
      9          6           0        0.700061    0.150402    0.000014
     10          8           0        0.683886    1.362249   -0.000030
     11          8           0       -0.390466   -0.641391    0.000037
     12          6           0       -1.764540   -0.089469    0.000002
     13          6           0       -2.627801   -1.351253    0.000012
     14          1           0       -2.424440   -1.956536    0.886155
     15          1           0       -3.686372   -1.080033    0.000013
     16          1           0       -2.424450   -1.956555   -0.886121
     17          6           0       -1.999185    0.728809    1.272376
     18          1           0       -1.768496    0.130105    2.157453
     19          1           0       -1.388090    1.629962    1.285503
     20          1           0       -3.052150    1.019170    1.326157
     21          6           0       -1.999150    0.728756   -1.272414
     22          1           0       -1.768292    0.130066   -2.157456
     23          1           0       -3.052147    1.018984   -1.326315
     24          1           0       -1.388170    1.629989   -1.285507
 ---------------------------------------------------------------------

 SCF Done:  E(RB3LYP) =  -463.860729279     A.U. after    1 cycles

 The electronic state is 1-A.
 Alpha  occ. eigenvalues --  -19.15977 -19.10346 -10.29938 -10.24696 -10.19234
 Alpha  occ. eigenvalues --  -10.18401 -10.18373 -10.16619 -10.16184 -10.16183
 Alpha  occ. eigenvalues --   -1.09843  -1.01691  -0.87172  -0.81750  -0.69984
 Alpha  occ. eigenvalues --   -0.69851  -0.68091  -0.61099  -0.59440  -0.53385
 Alpha  occ. eigenvalues --   -0.51469  -0.48971  -0.47136  -0.46871  -0.45508
 Alpha  occ. eigenvalues --   -0.43699  -0.42120  -0.40591  -0.39495  -0.39141
 Alpha  occ. eigenvalues --   -0.37553  -0.37371  -0.36095  -0.35571  -0.34000
 Alpha  occ. eigenvalues --   -0.31366  -0.30388  -0.30135  -0.27431
 Alpha virt. eigenvalues --    0.00043   0.00168   0.01068   0.02290   0.02648
 Alpha virt. eigenvalues --    0.03545   0.03596   0.03846   0.05461   0.05809
 Alpha virt. eigenvalues --    0.05841   0.06752   0.07124   0.07756   0.07802

 Mulliken charges:
               1
     1  C   -0.313982
     2  C   -0.003561
     3  C   -0.313983
     4  H    0.172817
     5  H    0.150349
     6  H    0.160780
     7  H    0.150349
     8  H    0.172817
     9  C    0.034939
    10  O   -0.296069
    11  O    0.059504
    12  C   -0.285929
    13  C   -0.411707
    14  H    0.152593
    15  H    0.145023
    16  H    0.152592
    17  C   -0.329663
    18  H    0.145514
    19  H    0.182138
    20  H    0.138748
    21  C   -0.329670
    22  H    0.145517
    23  H    0.138748
    24  H    0.182137
 Sum of Mulliken charges =   0.00000

 Dipole moment (field-independent basis, Debye):
    X=             -0.5537    Y=             -1.6124    Z=              0.0000  Tot=              1.7049
 Quadrupole moment (field-independent basis, Debye-Ang):
   XX=            -55.1141   YY=            -65.6640   ZZ=            -61.6050
   XY=             -3.4166   XZ=              0.0002   YZ=              0.0001

  Exact polarizability: 122.350   0.808  91.899   0.000   0.000  89.662
 Approx polarizability: 147.491   2.547 141.316   0.000   0.000 125.964

 ESP charges:
               1
     1  C   -0.165647
     2  C   -0.282389
     3  C   -0.165643
     4  H    0.088521
     5  H    0.106663
     6  H    0.155862
     7  H    0.106665
     8  H    0.088518
     9  C    0.847021
    10  O   -0.541071
    11  O   -0.686249
    12  C    0.857025
    13  C   -0.409862
    14  H    0.098170
    15  H    0.071044
    16  H    0.098166
    17  C   -0.322378
    18  H    0.064682
    19  H    0.074830
    20  H    0.049467
    21  C   -0.322378
    22  H    0.064688
    23  H    0.049466
    24  H    0.074827
 Sum of ESP charges =   0.00000

 Summary of Natural Population Analysis:

                                       Natural Population
                Natural  -----------------------------------------------
    Atom  No    Charge         Core      Valence    Rydberg      Total
 -----------------------------------------------------------------------
      C    1   -0.37350      1.99929     4.36081    0.01340     6.37350
      C    2   -0.32419      1.99912     4.30823    0.01684     6.32419
      C    3   -0.37350      1.99929     4.36081    0.01340     6.37350
      H    4    0.22348      0.00000     0.77472    0.00180     0.77652
      H    5    0.20915      0.00000     0.78940    0.00144     0.79085
      H    6    0.22982      0.00000     0.76870    0.00148     0.77018
      H    7    0.20915      0.00000     0.78940    0.00144     0.79085
      H    8    0.22347      0.00000     0.77472    0.00180     0.77653
      C    9    0.81173      1.99931     3.13687    0.05208     5.18827
      O   10   -0.63277      1.99974     6.62227    0.01075     8.63277
      O   11   -0.58743      1.99970     6.56797    0.01976     8.58743
      C   12    0.26985      1.99911     3.70984    0.02120     5.73015
      C   13   -0.58108      1.99924     4.56977    0.01207     6.58108
      H   14    0.20920      0.00000     0.78945    0.00135     0.79080
      H   15    0.20416      0.00000     0.79472    0.00112     0.79584
      H   16    0.20920      0.00000     0.78945    0.00135     0.79080
      C   17   -0.60520      1.99924     4.59470    0.01126     6.60520
      H   18    0.20598      0.00000     0.79271    0.00131     0.79402
      H   19    0.23014      0.00000     0.76837    0.00149     0.76986
      H   20    0.20569      0.00000     0.79315    0.00116     0.79431
      C   21   -0.60520      1.99924     4.59470    0.01126     6.60520
      H   22    0.20598      0.00000     0.79271    0.00131     0.79402
      H   23    0.20569      0.00000     0.79315    0.00116     0.79431
      H   24    0.23014      0.00000     0.76837    0.00149     0.76986
 =======================================================================
   * Total *    0.00000     19.99327    57.80499    0.20174    78.00000

                      1                      2                      3
                      A                      A                      A
 Frequencies --     53.5644                68.0614               123.1214
 Red. masses --      3.7482                 2.6693                 3.0937
 Frc consts  --      0.0063                 0.0073                 0.0276
 IR Inten    --      1.6960                 1.6106                 0.0001

                      4                      5                      6
                      A                      A                      A
 Frequencies --    140.8244               199.0633               241.2789
 Red. masses --      3.5465                 1.1151                 1.0684
 Frc consts  --      0.0414                 0.0260                 0.0366
 IR Inten    --      2.5747                 0.0643                 0.1129

                      7                      8                      9
                      A                      A                      A
 Frequencies --    264.3273               267.6315               271.8100
 Red. masses --      1.6290                 3.4534                 1.4671
 Frc consts  --      0.0671                 0.1457                 0.0639
 IR Inten    --      0.4212                 4.5197                 0.0713

                     10                     11                     12
                      A                      A                      A
 Frequencies --    293.9254               327.2683               357.5589
 Red. masses --      3.2479                 3.5039                 2.5057
 Frc consts  --      0.1653                 0.2211                 0.1887
 IR Inten    --      0.8636                10.1757                 1.7491

                     13                     14                     15
                      A                      A                      A
 Frequencies --    424.3603               467.4955               482.4534
 Red. masses --      2.7017                 3.0511                 2.5194
 Frc consts  --      0.2867                 0.3929                 0.3455
 IR Inten    --      1.5627                 4.1352                 1.0360

                     16                     17                     18
                      A                      A                      A
 Frequencies --    677.9122               743.3594               757.8638
 Red. masses --      2.8527                 4.7804                 4.1755
 Frc consts  --      0.7724                 1.5564                 1.4130
 IR Inten    --      3.1154                12.1050                 9.3605

                     19                     20                     21
                      A                      A                      A
 Frequencies --    799.4917               831.1569               843.3695
 Red. masses --      1.1230                 1.9152                 3.2428
 Frc consts  --      0.4229                 0.7795                 1.3590
 IR Inten    --      3.5426                 6.4733                46.7270

                     22                     23                     24
                      A                      A                      A
 Frequencies --    869.4686               917.0202               925.8991
 Red. masses --      3.3650                 2.3476                 1.6855
 Frc consts  --      1.4988                 1.1632                 0.8513
 IR Inten    --     10.7256                 2.2298                 0.2354

                     25                     26                     27
                      A                      A                      A
 Frequencies --    926.6106               969.8845               971.2232
 Red. masses --      1.6291                 4.3072                 1.2006
 Frc consts  --      0.8241                 2.3872                 0.6673
 IR Inten    --      0.5234                11.5016                 0.0751

                     28                     29                     30
                      A                      A                      A
 Frequencies --   1052.2628              1055.8015              1059.1945
 Red. masses --      1.4117                 1.2611                 1.3719
 Frc consts  --      0.9209                 0.8283                 0.9069
 IR Inten    --      0.7682                16.4943                 0.9725

                     31                     32                     33
                      A                      A                      A
 Frequencies --   1091.8119              1118.2967              1126.8523
 Red. masses --      1.3234                 1.4890                 1.1040
 Frc consts  --      0.9295                 1.0971                 0.8259
 IR Inten    --      3.5891                 1.9458                 1.9711

                     34                     35                     36
                      A                      A                      A
 Frequencies --   1172.4900              1207.0430              1219.2001
 Red. masses --      2.8609                 1.3648                 1.9683
 Frc consts  --      2.3172                 1.1715                 1.7239
 IR Inten    --    601.0809                 0.4862                 0.5848

                     37                     38                     39
                      A                      A                      A
 Frequencies --   1229.7726              1265.0129              1277.9417
 Red. masses --      3.1587                 2.7566                 2.8164
 Frc consts  --      2.8146                 2.5990                 2.7100
 IR Inten    --     86.8900                16.2134                17.1431

                     40                     41                     42
                      A                      A                      A
 Frequencies --   1400.7770              1402.2420              1413.0391
 Red. masses --      1.2659                 1.3120                 1.8963
 Frc consts  --      1.4635                 1.5199                 2.2308
 IR Inten    --     21.3463                33.9984               147.4932

                     43                     44                     45
                      A                      A                      A
 Frequencies --   1429.1545              1457.3718              1471.0999
 Red. masses --      1.2339                 1.0887                 1.0449
 Frc consts  --      1.4848                 1.3624                 1.3323
 IR Inten    --     17.4891                 4.0495                 0.3348

                     46                     47                     48
                      A                      A                      A
 Frequencies --   1490.4128              1491.2475              1493.9976
 Red. masses --      1.0455                 1.0492                 1.3681
 Frc consts  --      1.3683                 1.3747                 1.7991
 IR Inten    --      0.5646                 0.8324                15.4305

                     49                     50                     51
                      A                      A                      A
 Frequencies --   1497.7417              1504.1942              1526.0005
 Red. masses --      1.0709                 1.0545                 1.0551
 Frc consts  --      1.4154                 1.4057                 1.4477
 IR Inten    --      8.8739                 2.3556                17.7699

                     52                     53                     54
                      A                      A                      A
 Frequencies --   1761.2656              3033.5529              3033.6147
 Red. masses --     10.9074                 1.0357                 1.0379
 Frc consts  --     19.9353                 5.6153                 5.6277
 IR Inten    --    200.2797                 8.6389                25.2862

                     55                     56                     57
                      A                      A                      A
 Frequencies --   3041.8199              3092.4360              3094.3824
 Red. masses --      1.0375                 1.1018                 1.1016
 Frc consts  --      5.6557                 6.2078                 6.2149
 IR Inten    --     25.1817                 8.1866                17.4371

                     58                     59                     60
                      A                      A                      A
 Frequencies --   3108.6949              3109.5737              3130.2755
 Red. masses --      1.1017                 1.1028                 1.0496
 Frc consts  --      6.2730                 6.2825                 6.0595
 IR Inten    --     45.6934                28.8932                15.1065

                     61                     62                     63
                      A                      A                      A
 Frequencies --   3132.4470              3137.1683              3140.1452
 Red. masses --      1.0576                 1.0996                 1.0989
 Frc consts  --      6.1143                 6.3760                 6.3845
 IR Inten    --     10.2357                 0.4144                14.0738

                     64                     65                     66
                      A                      A                      A
 Frequencies --   3189.1775              3214.8824              3229.2214
 Red. masses --      1.0915                 1.1202                 1.1166
 Frc consts  --      6.5405                 6.8213                 6.8603
 IR Inten    --      2.4697                 0.3525                 7.0556

 - Thermochemistry -
 -------------------
 Temperature   298.150 Kelvin.  Pressure   1.00000 Atm.
 Atom     1 has atomic number  6 and mass  12.00000

 Molecular mass:   142.09938 amu.
 Principal axes and moments of inertia in atomic units:
                           1         2         3
     Eigenvalues --   627.681342484.361432566.04696
           X            0.99999  -0.00421   0.00000
           Y            0.00421   0.99999   0.00001
           Z            0.00000  -0.00001   1.00000
 This molecule is an asymmetric top.
 Rotational symmetry number  1.
 Warning -- assumption of classical behavior for rotation
           may cause significant error
 Rotational temperatures (Kelvin)      0.13799     0.03486     0.03375
 Rotational constants (GHZ):           2.87525     0.72644     0.70332
 Zero-point vibrational energy     545004.4 (Joules/Mol)
                                  130.25918 (Kcal/Mol)
 Warning -- explicit consideration of  15 degrees of freedom as
           vibrations may cause significant error
 Vibrational temperatures:     77.07    97.93   177.14   202.61   286.41
          (Kelvin)            347.15   380.31   385.06   391.07   422.89
                              470.87   514.45   610.56   672.62   694.14
                              975.36  1069.53  1090.40  1150.29  1195.85
                             1213.42  1250.97  1319.39  1332.16  1333.18
                             1395.45  1397.37  1513.97  1519.06  1523.94
                             1570.87  1608.98  1621.29  1686.95  1736.66
                             1754.15  1769.37  1820.07  1838.67  2015.40
                             2017.51  2033.05  2056.23  2096.83  2116.58
                             2144.37  2145.57  2149.53  2154.91  2164.20
                             2195.57  2534.07  4364.60  4364.69  4376.49
                             4449.32  4452.12  4472.71  4473.98  4503.76
                             4506.89  4513.68  4517.96  4588.51  4625.49
                             4646.12

 Zero-point correction=                           0.207581 (Hartree/Particle)
 Thermal correction to Energy=                    0.218915
 Thermal correction to Enthalpy=                  0.219860
 Thermal correction to Gibbs Free Energy=         0.170842
 Sum of electronic and zero-point Energies=           -463.653148
 Sum of electronic and thermal Energies=              -463.641814
 Sum of electronic and thermal Enthalpies=            -463.640870
 Sum of electronic and thermal Free Energies=         -463.689887

                     E (Thermal)             CV                S
                      KCal/Mol        Cal/Mol-Kelvin    Cal/Mol-Kelvin
 Total                  137.371             42.362            103.165
 Electronic               0.000              0.000              0.000
 Translational            0.889              2.981             40.765
 Rotational               0.889              2.981             29.771
 Vibrational            135.594             36.401             32.629
 Vibration     1          0.596              1.976              4.681
 Vibration     2          0.598              1.969              4.209
 Vibration     3          0.610              1.930              3.051
 Vibration     4          0.615              1.912              2.793
 Vibration     5          0.637              1.841              2.142
 Vibration     6          0.658              1.777              1.793
 Vibration     7          0.671              1.738              1.633
 Vibration     8          0.673              1.733              1.611
 Vibration     9          0.675              1.725              1.585
 Vibration    10          0.689              1.685              1.451
 Vibration    11          0.711              1.621              1.274
 Vibration    12          0.733              1.560              1.133
 Vibration    13          0.786              1.417              0.877
 Vibration    14          0.825              1.322              0.745
 Vibration    15          0.839              1.289              0.703

 Optimization completed.
    -- Stationary point found.
 Normal termination of Gaussian 09 at Wed Apr 24 12:54:51 2024.
