 Gaussian 09, Revision D.01,
 Gaussian 09:  ES64L-G09RevD.01 24-Apr-2013

 ----------------------------------------------------------------------
 # opt freq=noraman b3lyp/6-311+g(d,p) pop=(npa,hirshfeld,chelpg,mbs) g
 eom=connectivity
 ----------------------------------------------------------------------

 -------------------
 Title Card Required
 -------------------
 Symbolic Z-matrix:
 Charge =  0 Multiplicity = 1

 SCF Done:  E(RB3LYP) =  -487.894113962     A.U. after   12 cycles
 SCF Done:  E(RB3LYP) =  -487.910978671     A.U. after   11 cycles
 SCF Done:  E(RB3LYP) =  -487.915189692     A.U. after   10 cycles
 SCF Done:  E(RB3LYP) =  -487.918006723     A.U. after   11 cycles
 SCF Done:  E(RB3LYP) =  -487.918432549     A.U. after   10 cycles
 SCF Done:  E(RB3LYP) =  -487.918553680     A.U. after   10 cycles
 SCF Done:  E(RB3LYP) =  -487.918795628     A.U. after    9 cycles
 SCF Done:  E(RB3LYP) =  -487.918840535     A.U. after    9 cycles
 SCF Done:  E(RB3LYP) =  -487.918840720     A.U. after    8 cycles
 SCF Done:  E(RB3LYP) =  -487.918840826     A.U. after    7 cycles
 SCF Done:  E(RB3LYP) =  -487.918840757     A.U. after    7 cycles
 SCF Done:  E(RB3LYP) =  -487.918840678     A.U. after    6 cycles
 Optimization completed.
    -- Stationary point found.
 Normal termination of Gaussian 09 at Tue Apr 23 12:49:17 2024.

 ----------------------------------------------------------------------
 #N Geom=AllCheck Guess=TCheck SCRF=Check GenChk RB3LYP/6-311+G(d,p) Fr
 eq
 ----------------------------------------------------------------------

 Structure from the checkpoint file:  "53.chk"
 -------------------
 Title Card Required
 -------------------
 Charge =  0 Multiplicity = 1

                         Standard orientation:
 ---------------------------------------------------------------------
 Center     Atomic      Atomic             Coordinates (Angstroms)
 Number     Number       Type             X           Y           Z
 ---------------------------------------------------------------------
      1          6           0        0.304883    0.734021    0.360865
      2          1           0        0.182700    1.761732    0.002905
      3          1           0        0.281712    0.785040    1.467768
      4          6           0       -0.884476   -0.092268   -0.138368
      5          1           0       -0.831551   -1.113731    0.253556
      6          1           0       -0.817494   -0.171694   -1.229105
      7          6           0       -2.231783    0.521692    0.260863
      8          1           0       -2.275057    0.630341    1.352355
      9          1           0       -2.303300    1.537873   -0.148417
     10          6           0       -3.439242   -0.296197   -0.210818
     11          1           0       -3.374763   -1.310169    0.205268
     12          1           0       -3.394181   -0.412903   -1.301417
     13          6           0       -4.788538    0.321045    0.174389
     14          1           0       -4.832297    0.441208    1.263819
     15          1           0       -4.855234    1.332326   -0.245158
     16          6           0       -5.989191   -0.505382   -0.295670
     17          1           0       -5.970780   -1.510999    0.136458
     18          1           0       -5.992031   -0.614684   -1.384858
     19          6           0        2.641919    1.285576    0.047095
     20          6           0        2.014588   -1.001588    0.503045
     21          6           0        3.967237    0.848943   -0.581433
     22          1           0        2.805544    1.516400    1.120116
     23          1           0        2.289698    2.206514   -0.426388
     24          6           0        3.316089   -1.529958   -0.104935
     25          1           0        2.145627   -0.874060    1.597932
     26          1           0        1.220498   -1.737114    0.361969
     27          6           0        4.435919   -0.489360   -0.000322
     28          1           0        4.719739    1.627352   -0.417633
     29          1           0        3.828554    0.752957   -1.664094
     30          1           0        3.600307   -2.457833    0.402182
     31          1           0        3.138042   -1.775943   -1.157697
     32          1           0        5.337799   -0.838671   -0.512802
     33          1           0        4.705906   -0.351972    1.054786
     34          7           0        1.605827    0.262365   -0.116118
     35          1           0       -6.934666   -0.037666   -0.006982
 ---------------------------------------------------------------------

 SCF Done:  E(RB3LYP) =  -487.918840678     A.U. after    1 cycles

 The electronic state is 1-A.
 Alpha  occ. eigenvalues --  -14.29982 -10.18789 -10.18768 -10.18705 -10.16399
 Alpha  occ. eigenvalues --  -10.16361 -10.16297 -10.16228 -10.16224 -10.16207
 Alpha  occ. eigenvalues --  -10.16113 -10.15699  -0.92441  -0.80997  -0.79461
 Alpha  occ. eigenvalues --   -0.76098  -0.75066  -0.70547  -0.65295  -0.62465
 Alpha  occ. eigenvalues --   -0.61123  -0.57896  -0.57731  -0.54978  -0.49218
 Alpha  occ. eigenvalues --   -0.48392  -0.46217  -0.45162  -0.44938  -0.43275
 Alpha  occ. eigenvalues --   -0.42689  -0.41931  -0.41132  -0.39701  -0.39103
 Alpha  occ. eigenvalues --   -0.38445  -0.37063  -0.35564  -0.34725  -0.34645
 Alpha  occ. eigenvalues --   -0.33288  -0.33166  -0.32722  -0.32470  -0.32119
 Alpha  occ. eigenvalues --   -0.31272  -0.30477  -0.21597
 Alpha virt. eigenvalues --    0.00512   0.01060   0.01493   0.01886   0.02153
 Alpha virt. eigenvalues --    0.02798   0.03273   0.03761   0.04423   0.05009
 Alpha virt. eigenvalues --    0.05309   0.05750   0.06017   0.06584   0.06969

 Mulliken charges:
               1
     1  C   -0.398838
     2  H    0.126301
     3  H    0.127478
     4  C   -0.174391
     5  H    0.126849
     6  H    0.148864
     7  C   -0.241540
     8  H    0.141336
     9  H    0.141065
    10  C   -0.306436
    11  H    0.137948
    12  H    0.139266
    13  C   -0.224692
    14  H    0.134861
    15  H    0.135122
    16  C   -0.620558
    17  H    0.132340
    18  H    0.132650
    19  C   -0.153594
    20  C   -0.269560
    21  C   -0.372657
    22  H    0.124179
    23  H    0.132617
    24  C   -0.351332
    25  H    0.122414
    26  H    0.144432
    27  C   -0.253941
    28  H    0.144695
    29  H    0.149046
    30  H    0.143766
    31  H    0.149283
    32  H    0.142419
    33  H    0.139475
    34  N    0.214063
    35  H    0.137068
 Sum of Mulliken charges =   0.00000

 Dipole moment (field-independent basis, Debye):
    X=              0.0690    Y=              0.0751    Z=              0.4099  Tot=              0.4224
 Quadrupole moment (field-independent basis, Debye-Ang):
   XX=            -79.5746   YY=            -79.2833   ZZ=            -81.6061
   XY=             -0.3176   XZ=              0.2485   YZ=             -0.9755

  Exact polarizability: 174.572   0.232 130.742  -0.675   1.599 121.934
 Approx polarizability: 189.611  -0.317 189.335   0.341   1.223 191.614

 ESP charges:
               1
     1  C    0.174665
     2  H    0.022894
     3  H   -0.030398
     4  C    0.151626
     5  H   -0.009873
     6  H   -0.027808
     7  C   -0.144511
     8  H    0.001051
     9  H    0.013079
    10  C    0.103604
    11  H   -0.033043
    12  H   -0.028762
    13  C    0.194802
    14  H   -0.041216
    15  H   -0.043284
    16  C   -0.225502
    17  H    0.042028
    18  H    0.041735
    19  C    0.195641
    20  C    0.211033
    21  C   -0.036998
    22  H   -0.026971
    23  H    0.021446
    24  C   -0.068103
    25  H   -0.009134
    26  H    0.001401
    27  C    0.144633
    28  H   -0.013225
    29  H    0.016098
    30  H   -0.004484
    31  H    0.023595
    32  H   -0.032536
    33  H   -0.032496
    34  N   -0.599554
    35  H    0.048566
 Sum of ESP charges =   0.00000

 Summary of Natural Population Analysis:

                                       Natural Population
                Natural  -----------------------------------------------
    Atom  No    Charge         Core      Valence    Rydberg      Total
 -----------------------------------------------------------------------
      C    1   -0.16027      1.99925     4.14269    0.01832     6.16027
      H    2    0.18876      0.00000     0.80899    0.00225     0.81124
      H    3    0.16174      0.00000     0.83501    0.00326     0.83826
      C    4   -0.38731      1.99927     4.37435    0.01370     6.38731
      H    5    0.18861      0.00000     0.80897    0.00242     0.81139
      H    6    0.19980      0.00000     0.79717    0.00304     0.80020
      C    7   -0.37800      1.99928     4.36481    0.01391     6.37800
      H    8    0.18903      0.00000     0.80849    0.00248     0.81097
      H    9    0.18812      0.00000     0.80946    0.00242     0.81188
      C   10   -0.37787      1.99928     4.36420    0.01439     6.37787
      H   11    0.18773      0.00000     0.80990    0.00237     0.81227
      H   12    0.18874      0.00000     0.80887    0.00238     0.81126
      C   13   -0.38254      1.99931     4.37011    0.01311     6.38254
      H   14    0.18756      0.00000     0.81014    0.00229     0.81244
      H   15    0.18771      0.00000     0.81001    0.00228     0.81229
      C   16   -0.57256      1.99938     4.56403    0.00915     6.57256
      H   17    0.19276      0.00000     0.80552    0.00172     0.80724
      H   18    0.19299      0.00000     0.80529    0.00172     0.80701
      C   19   -0.16680      1.99927     4.14917    0.01836     6.16680
      C   20   -0.17154      1.99926     4.15363    0.01865     6.17154
      C   21   -0.39052      1.99928     4.37660    0.01464     6.39052
      H   22    0.15904      0.00000     0.83763    0.00334     0.84096
      H   23    0.19378      0.00000     0.80437    0.00185     0.80622
      C   24   -0.39013      1.99928     4.37626    0.01459     6.39013
      H   25    0.15904      0.00000     0.83765    0.00331     0.84096
      H   26    0.19582      0.00000     0.80208    0.00210     0.80418
      C   27   -0.38346      1.99929     4.36998    0.01419     6.38346
      H   28    0.19948      0.00000     0.79873    0.00179     0.80052
      H   29    0.19699      0.00000     0.80035    0.00266     0.80301
      H   30    0.19939      0.00000     0.79885    0.00177     0.80061
      H   31    0.19702      0.00000     0.80031    0.00267     0.80298
      H   32    0.20054      0.00000     0.79799    0.00147     0.79946
      H   33    0.18838      0.00000     0.80938    0.00225     0.81162
      N   34   -0.58125      1.99940     5.54093    0.04092     7.58125
      H   35    0.19923      0.00000     0.79955    0.00122     0.80077
 =======================================================================
   * Total *    0.00000     23.99155    71.75147    0.25698    96.00000

                      1                      2                      3
                      A                      A                      A
 Frequencies --     30.4398                36.0429                55.3215
 Red. masses --      1.6735                 3.2383                 3.3384
 Frc consts  --      0.0009                 0.0025                 0.0060
 IR Inten    --      0.0441                 0.0183                 0.0321

                      4                      5                      6
                      A                      A                      A
 Frequencies --     86.9821               116.9871               132.4534
 Red. masses --      2.6680                 1.7234                 2.6671
 Frc consts  --      0.0119                 0.0139                 0.0276
 IR Inten    --      0.1296                 0.1019                 0.1345

                      7                      8                      9
                      A                      A                      A
 Frequencies --    153.2739               207.8825               221.2101
 Red. masses --      2.3240                 2.6548                 3.3752
 Frc consts  --      0.0322                 0.0676                 0.0973
 IR Inten    --      0.1987                 0.7033                 0.0321

                     10                     11                     12
                      A                      A                      A
 Frequencies --    242.8103               248.6910               313.5099
 Red. masses --      1.8316                 1.1177                 2.0169
 Frc consts  --      0.0636                 0.0407                 0.1168
 IR Inten    --      0.1884                 0.0104                 2.0827

                     13                     14                     15
                      A                      A                      A
 Frequencies --    324.8146               404.5184               414.4526
 Red. masses --      2.7554                 1.8502                 3.3417
 Frc consts  --      0.1713                 0.1784                 0.3382
 IR Inten    --      0.1141                 2.8235                 0.1416

                     16                     17                     18
                      A                      A                      A
 Frequencies --    460.6567               471.2452               496.8229
 Red. masses --      2.7342                 2.7115                 2.7120
 Frc consts  --      0.3418                 0.3548                 0.3944
 IR Inten    --      1.3695                 0.8919                 1.5307

                     19                     20                     21
                      A                      A                      A
 Frequencies --    587.7238               732.6927               749.6679
 Red. masses --      1.9187                 1.0640                 1.1048
 Frc consts  --      0.3905                 0.3365                 0.3658
 IR Inten    --      0.1486                 3.2471                 0.0598

                     22                     23                     24
                      A                      A                      A
 Frequencies --    786.6092               804.6386               819.5913
 Red. masses --      2.9958                 1.2367                 1.4783
 Frc consts  --      1.0922                 0.4718                 0.5851
 IR Inten    --     11.3864                 0.5052                 0.5774

                     25                     26                     27
                      A                      A                      A
 Frequencies --    863.5035               870.5428               896.5225
 Red. masses --      2.7455                 1.3945                 1.9498
 Frc consts  --      1.2061                 0.6226                 0.9233
 IR Inten    --      5.3432                 2.1350                 2.7919

                     28                     29                     30
                      A                      A                      A
 Frequencies --    897.4505               916.6018               978.8239
 Red. masses --      1.4576                 1.8585                 1.3007
 Frc consts  --      0.6917                 0.9200                 0.7342
 IR Inten    --      2.6642                 0.3500                 1.3913

                     31                     32                     33
                      A                      A                      A
 Frequencies --    991.9064              1006.5225              1016.0583
 Red. masses --      3.1419                 1.1950                 2.8257
 Frc consts  --      1.8213                 0.7133                 1.7188
 IR Inten    --      7.5399                 0.5014                 2.7158

                     34                     35                     36
                      A                      A                      A
 Frequencies --   1039.4235              1051.5706              1053.7791
 Red. masses --      2.8385                 2.1827                 2.4261
 Frc consts  --      1.8069                 1.4221                 1.5873
 IR Inten    --      6.1402                10.1631                 0.5972

                     37                     38                     39
                      A                      A                      A
 Frequencies --   1065.3904              1081.4241              1113.3201
 Red. masses --      2.2025                 1.5748                 2.5521
 Frc consts  --      1.4730                 1.0851                 1.8638
 IR Inten    --      0.8401                 5.4590                28.0850

                     40                     41                     42
                      A                      A                      A
 Frequencies --   1127.9986              1147.8223              1171.0002
 Red. masses --      2.3706                 2.5108                 1.7721
 Frc consts  --      1.7772                 1.9490                 1.4317
 IR Inten    --      9.7821                17.1289                17.5524

                     43                     44                     45
                      A                      A                      A
 Frequencies --   1177.9860              1181.9953              1222.9318
 Red. masses --      1.3466                 1.8529                 1.5571
 Frc consts  --      1.1010                 1.5252                 1.3721
 IR Inten    --      8.0754                10.3668                 1.9206

                     46                     47                     48
                      A                      A                      A
 Frequencies --   1244.2148              1269.1720              1285.8323
 Red. masses --      1.4147                 1.5211                 1.2840
 Frc consts  --      1.2903                 1.4436                 1.2508
 IR Inten    --      4.7082                 5.8174                 6.5241

                     49                     50                     51
                      A                      A                      A
 Frequencies --   1296.6987              1298.5890              1320.8255
 Red. masses --      1.2716                 1.1851                 1.1783
 Frc consts  --      1.2597                 1.1775                 1.2112
 IR Inten    --      1.3306                 8.2619                 1.3135

                     52                     53                     54
                      A                      A                      A
 Frequencies --   1323.9113              1327.8470              1334.3474
 Red. masses --      1.3317                 1.0921                 1.1368
 Frc consts  --      1.3752                 1.1345                 1.1925
 IR Inten    --      2.1648                 4.0371                 0.7984

                     55                     56                     57
                      A                      A                      A
 Frequencies --   1341.8110              1357.7903              1374.3272
 Red. masses --      1.2645                 1.2862                 1.3794
 Frc consts  --      1.3413                 1.3971                 1.5351
 IR Inten    --     11.3550                 2.8568                 9.3968

                     58                     59                     60
                      A                      A                      A
 Frequencies --   1379.2746              1383.4994              1386.9413
 Red. masses --      1.4224                 1.4942                 1.4662
 Frc consts  --      1.5943                 1.6851                 1.6617
 IR Inten    --      1.9355                 4.2142                 2.0765

                     61                     62                     63
                      A                      A                      A
 Frequencies --   1397.8111              1409.2798              1413.4873
 Red. masses --      1.6039                 1.4299                 1.2462
 Frc consts  --      1.8464                 1.6732                 1.4670
 IR Inten    --      0.8365                15.9318                 2.2701

                     64                     65                     66
                      A                      A                      A
 Frequencies --   1430.3756              1478.1784              1484.8929
 Red. masses --      1.4488                 1.0926                 1.0782
 Frc consts  --      1.7465                 1.4066                 1.4007
 IR Inten    --      2.6022                 2.7029                 0.5842

                     67                     68                     69
                      A                      A                      A
 Frequencies --   1486.2679              1487.0257              1488.3432
 Red. masses --      1.0840                 1.0738                 1.0781
 Frc consts  --      1.4109                 1.3990                 1.4071
 IR Inten    --      6.4569                 0.1841                 4.0666

                     70                     71                     72
                      A                      A                      A
 Frequencies --   1493.6856              1496.9135              1499.3722
 Red. masses --      1.0924                 1.0740                 1.0851
 Frc consts  --      1.4360                 1.4179                 1.4372
 IR Inten    --      4.4047                 0.7694                 2.1477

                     73                     74                     75
                      A                      A                      A
 Frequencies --   1500.4992              1506.2432              1511.8338
 Red. masses --      1.0396                 1.0890                 1.0954
 Frc consts  --      1.3791                 1.4556                 1.4752
 IR Inten    --      8.2151                 1.7084                 1.3413

                     76                     77                     78
                      A                      A                      A
 Frequencies --   1516.9302              2862.8148              2870.3950
 Red. masses --      1.0996                 1.0739                 1.0728
 Frc consts  --      1.4908                 5.1856                 5.2076
 IR Inten    --     11.6407                33.7244                62.8782

                     79                     80                     81
                      A                      A                      A
 Frequencies --   2887.9863              2992.2058              2996.0815
 Red. masses --      1.0725                 1.0574                 1.0582
 Frc consts  --      5.2704                 5.5781                 5.5964
 IR Inten    --    167.6766                 0.1562                10.7811

                     82                     83                     84
                      A                      A                      A
 Frequencies --   3002.6207              3007.3306              3009.6125
 Red. masses --      1.0674                 1.0596                 1.0995
 Frc consts  --      5.6701                 5.6462                 5.8676
 IR Inten    --     28.2356                55.7360                 0.2537

                     85                     86                     87
                      A                      A                      A
 Frequencies --   3017.4873              3018.8529              3019.3801
 Red. masses --      1.0376                 1.0618                 1.0592
 Frc consts  --      5.5665                 5.7015                 5.6892
 IR Inten    --     30.1696                21.6022                80.9308

                     88                     89                     90
                      A                      A                      A
 Frequencies --   3020.1440              3022.9242              3035.0236
 Red. masses --      1.0602                 1.1013                 1.0869
 Frc consts  --      5.6979                 5.9293                 5.8987
 IR Inten    --      2.2045                 2.7377                14.4541

                     91                     92                     93
                      A                      A                      A
 Frequencies --   3043.2886              3050.1083              3052.8315
 Red. masses --      1.1035                 1.0910                 1.0875
 Frc consts  --      6.0216                 5.9799                 5.9713
 IR Inten    --     30.9151                76.8866                31.0464

                     94                     95                     96
                      A                      A                      A
 Frequencies --   3057.5835              3062.8438              3064.3012
 Red. masses --      1.1039                 1.1025                 1.1041
 Frc consts  --      6.0805                 6.0938                 6.1086
 IR Inten    --     22.4919                24.3299               134.3777

                     97                     98                     99
                      A                      A                      A
 Frequencies --   3078.3115              3081.5813              3082.4889
 Red. masses --      1.1023                 1.0864                 1.1009
 Frc consts  --      6.1545                 6.0784                 6.1629
 IR Inten    --     72.8489                45.7792                47.0577

 - Thermochemistry -
 -------------------
 Temperature   298.150 Kelvin.  Pressure   1.00000 Atm.
 Atom     1 has atomic number  6 and mass  12.00000

 Molecular mass:   169.18305 amu.
 Principal axes and moments of inertia in atomic units:
                           1         2         3
     Eigenvalues --   569.209807176.574037510.09533
           X            1.00000   0.00115   0.00129
           Y           -0.00116   0.99996   0.00830
           Z           -0.00128  -0.00830   0.99996
 This molecule is an asymmetric top.
 Rotational symmetry number  1.
 Warning -- assumption of classical behavior for rotation
           may cause significant error
 Rotational temperatures (Kelvin)      0.15217     0.01207     0.01153
 Rotational constants (GHZ):           3.17061     0.25148     0.24031
 Zero-point vibrational energy     859122.3 (Joules/Mol)
                                  205.33516 (Kcal/Mol)
 Warning -- explicit consideration of  19 degrees of freedom as
           vibrations may cause significant error
 Vibrational temperatures:     43.80    51.86    79.60   125.15   168.32
          (Kelvin)            190.57   220.53   299.10   318.27   349.35
                              357.81   451.07   467.34   582.01   596.30
                              662.78   678.02   714.82   845.60  1054.18
                             1078.60  1131.75  1157.69  1179.21  1242.39
                             1252.52  1289.89  1291.23  1318.78  1408.31
                             1427.13  1448.16  1461.88  1495.50  1512.97
                             1516.15  1532.86  1555.93  1601.82  1622.94
                             1651.46  1684.81  1694.86  1700.63  1759.52
                             1790.15  1826.05  1850.02  1865.66  1868.38
                             1900.37  1904.81  1910.47  1919.83  1930.56
                             1953.55  1977.35  1984.47  1990.54  1995.50
                             2011.14  2027.64  2033.69  2057.99  2126.77
                             2136.43  2138.41  2139.50  2141.39  2149.08
                             2153.72  2157.26  2158.88  2167.15  2175.19
                             2182.52  4118.95  4129.85  4155.16  4305.11
                             4310.69  4320.10  4326.87  4330.16  4341.49
                             4343.45  4344.21  4345.31  4349.31  4366.72
                             4378.61  4388.42  4392.34  4399.18  4406.74
                             4408.84  4429.00  4433.70  4435.01

 Zero-point correction=                           0.327222 (Hartree/Particle)
 Thermal correction to Energy=                    0.341126
 Thermal correction to Enthalpy=                  0.342070
 Thermal correction to Gibbs Free Energy=         0.285257
 Sum of electronic and zero-point Energies=           -487.591618
 Sum of electronic and thermal Energies=              -487.577714
 Sum of electronic and thermal Enthalpies=            -487.576770
 Sum of electronic and thermal Free Energies=         -487.633584

                     E (Thermal)             CV                S
                      KCal/Mol        Cal/Mol-Kelvin    Cal/Mol-Kelvin
 Total                  214.060             52.040            119.575
 Electronic               0.000              0.000              0.000
 Translational            0.889              2.981             41.285
 Rotational               0.889              2.981             31.795
 Vibrational            212.283             46.078             46.494
 Vibration     1          0.594              1.984              5.801
 Vibration     2          0.594              1.982              5.466
 Vibration     3          0.596              1.975              4.617
 Vibration     4          0.601              1.958              3.727
 Vibration     5          0.608              1.935              3.150
 Vibration     6          0.613              1.921              2.910
 Vibration     7          0.619              1.899              2.631
 Vibration     8          0.641              1.829              2.062
 Vibration     9          0.648              1.809              1.949
 Vibration    10          0.659              1.775              1.782
 Vibration    11          0.662              1.765              1.740
 Vibration    12          0.701              1.648              1.344
 Vibration    13          0.709              1.626              1.286
 Vibration    14          0.770              1.460              0.946
 Vibration    15          0.778              1.439              0.911
 Vibration    16          0.818              1.337              0.764
 Vibration    17          0.828              1.314              0.734
 Vibration    18          0.852              1.257              0.666
 Vibration    19          0.945              1.058              0.471

 Optimization completed.
    -- Stationary point found.
 Normal termination of Gaussian 09 at Tue Apr 23 12:58:35 2024.
