 Gaussian 09, Revision D.01,
 Gaussian 09:  ES64L-G09RevD.01 24-Apr-2013

 ---------------------------------------------------------------------
 # b3lyp/6-311+g(d,p) geom=connectivity pop=(hirshfeld,chelpg,mbs,npa)
 ---------------------------------------------------------------------

 --------
 Table9_2
 --------
 Symbolic Z-matrix:
 Charge =  0 Multiplicity = 1

                         Standard orientation:
 ---------------------------------------------------------------------
 Center     Atomic      Atomic             Coordinates (Angstroms)
 Number     Number       Type             X           Y           Z
 ---------------------------------------------------------------------
      1          6           0       -0.720218    0.840347   -0.106896
      2          6           0       -0.429655   -0.499706   -0.099157
      3          6           0        0.873613   -0.983602   -0.081857
      4          6           0        1.916419   -0.040674    0.018210
      5          6           0        1.619907    1.345375    0.102202
      6          6           0        0.283021    1.795121    0.040459
      7          6           0       -2.752877   -0.285419   -0.037870
      8          6           0       -1.744963   -1.256871   -0.082782
      9          1           0        1.077074   -2.032713   -0.135434
     10          1           0        2.414726    2.053597    0.209836
     11          1           0        0.048448    2.837499    0.098097
     12          1           0       -2.542029    1.769137    0.321162
     13          1           0       -1.875152   -2.318920   -0.084530
     14          7           0       -2.175891    1.065768   -0.288113
     15          6           0       -4.240879   -0.571483    0.237116
     16          1           0       -4.425263   -0.520482    1.289875
     17          1           0       -4.842867    0.156055   -0.266072
     18          1           0       -4.488380   -1.548783   -0.121393
     19         17           0        3.590499   -0.583194    0.045217
 ---------------------------------------------------------------------

 SCF Done:  E(RB3LYP) =  -862.838941019     A.U. after   16 cycles

 The electronic state is 1-A.
 Alpha  occ. eigenvalues -- -101.55068 -14.35868 -10.23935 -10.23369 -10.21716
 Alpha  occ. eigenvalues --  -10.19158 -10.19097 -10.18950 -10.18737 -10.18577
 Alpha  occ. eigenvalues --  -10.18138  -9.46508  -7.22968  -7.21989  -7.21965
 Alpha  occ. eigenvalues --   -0.95380  -0.88466  -0.83257  -0.79077  -0.76182
 Alpha  occ. eigenvalues --   -0.73350  -0.69756  -0.62285  -0.59339  -0.56918
 Alpha  occ. eigenvalues --   -0.53750  -0.48268  -0.47566  -0.46469  -0.45347
 Alpha  occ. eigenvalues --   -0.44442  -0.43206  -0.41772  -0.40358  -0.39099
 Alpha  occ. eigenvalues --   -0.38054  -0.36564  -0.35934  -0.31472  -0.31281
 Alpha  occ. eigenvalues --   -0.28945  -0.23647  -0.22426
 Alpha virt. eigenvalues --   -0.03518  -0.01717  -0.00806   0.00693   0.01229
 Alpha virt. eigenvalues --    0.01570   0.01961   0.02942   0.03752   0.04869
 Alpha virt. eigenvalues --    0.05032   0.05553   0.06277   0.06325   0.07152

 Mulliken charges:
               1
     1  C   -1.635607
     2  C    1.590791
     3  C   -0.606974
     4  C    0.942440
     5  C   -0.855436
     6  C   -0.313085
     7  C    0.028530
     8  C   -0.364017
     9  H    0.138621
    10  H    0.145808
    11  H    0.118403
    12  H    0.236785
    13  H    0.122555
    14  N   -0.036643
    15  C   -0.361350
    16  H    0.168452
    17  H    0.147436
    18  H    0.158050
    19  Cl   0.375242
 Sum of Mulliken charges =   0.00000

 Dipole moment (field-independent basis, Debye):
    X=             -3.5024    Y=              0.7375    Z=              1.1271  Tot=              3.7525
 Quadrupole moment (field-independent basis, Debye-Ang):
   XX=            -67.8377   YY=            -63.7523   ZZ=            -76.5183
   XY=              1.3230   XZ=             -3.1834   YZ=              2.2951

 ESP charges:
               1
     1  C    0.216947
     2  C    0.176462
     3  C   -0.214717
     4  C    0.084541
     5  C   -0.096867
     6  C   -0.257351
     7  C    0.210154
     8  C   -0.414353
     9  H    0.145354
    10  H    0.108764
    11  H    0.155542
    12  H    0.321060
    13  H    0.185430
    14  N   -0.525273
    15  C   -0.050617
    16  H    0.019030
    17  H    0.043640
    18  H    0.042255
    19  Cl  -0.150001
 Sum of ESP charges =   0.00000

 Summary of Natural Population Analysis:

                                       Natural Population
                Natural  -----------------------------------------------
    Atom  No    Charge         Core      Valence    Rydberg      Total
 -----------------------------------------------------------------------
      C    1    0.15468      1.99872     3.82811    0.01849     5.84532
      C    2   -0.07562      1.99888     4.05980    0.01694     6.07562
      C    3   -0.21353      1.99890     4.19706    0.01757     6.21353
      C    4   -0.04896      1.99869     4.02738    0.02289     6.04896
      C    5   -0.22849      1.99905     4.21072    0.01872     6.22849
      C    6   -0.20885      1.99906     4.19368    0.01611     6.20885
      C    7    0.19594      1.99914     3.78579    0.01914     5.80406
      C    8   -0.27001      1.99901     4.25533    0.01568     6.27001
      H    9    0.22221      0.00000     0.77590    0.00189     0.77779
      H   10    0.21881      0.00000     0.77948    0.00171     0.78119
      H   11    0.21273      0.00000     0.78556    0.00171     0.78727
      H   12    0.37854      0.00000     0.61866    0.00279     0.62146
      H   13    0.21874      0.00000     0.77969    0.00157     0.78126
      N   14   -0.59968      1.99939     5.58382    0.01647     7.59968
      C   15   -0.60093      1.99924     4.59290    0.00879     6.60093
      H   16    0.21400      0.00000     0.78462    0.00138     0.78600
      H   17    0.21114      0.00000     0.78708    0.00177     0.78886
      H   18    0.22033      0.00000     0.77844    0.00123     0.77967
     Cl   19   -0.00104      9.99961     6.98123    0.02020    17.00104
 =======================================================================
   * Total *    0.00000     29.98968    55.80528    0.20505    86.00000

 Normal termination of Gaussian 09 at Fri Jul 23 17:40:02 2021.
