 Gaussian 09, Revision D.01,
 Gaussian 09:  ES64L-G09RevD.01 24-Apr-2013

 ----------------------------------------------------------------------
 # opt freq b3lyp/6-311+g(d,p) geom=connectivity pop=(hirshfeld,chelpg,
 mbs,npa)
 ----------------------------------------------------------------------

 ---------
 Figure2_1
 ---------
 Symbolic Z-matrix:
 Charge =  0 Multiplicity = 1

 SCF Done:  E(RB3LYP) =  -716.977519207     A.U. after   14 cycles
 SCF Done:  E(RB3LYP) =  -717.044506620     A.U. after   13 cycles
 SCF Done:  E(RB3LYP) =  -717.061032972     A.U. after   12 cycles
 SCF Done:  E(RB3LYP) =  -717.072085764     A.U. after   12 cycles
 SCF Done:  E(RB3LYP) =  -717.078840822     A.U. after   14 cycles
 SCF Done:  E(RB3LYP) =  -717.082960494     A.U. after   12 cycles
 SCF Done:  E(RB3LYP) =  -717.088374832     A.U. after   12 cycles
 SCF Done:  E(RB3LYP) =  -717.091903177     A.U. after   12 cycles
 SCF Done:  E(RB3LYP) =  -717.095034752     A.U. after   12 cycles
 SCF Done:  E(RB3LYP) =  -717.096897078     A.U. after   11 cycles
 SCF Done:  E(RB3LYP) =  -717.098032347     A.U. after   11 cycles
 SCF Done:  E(RB3LYP) =  -717.098065360     A.U. after   10 cycles
 SCF Done:  E(RB3LYP) =  -717.098077458     A.U. after   10 cycles
 SCF Done:  E(RB3LYP) =  -717.098074826     A.U. after    9 cycles
 SCF Done:  E(RB3LYP) =  -717.098074159     A.U. after   10 cycles
 SCF Done:  E(RB3LYP) =  -717.098072974     A.U. after    9 cycles
 SCF Done:  E(RB3LYP) =  -717.098074095     A.U. after    9 cycles
 SCF Done:  E(RB3LYP) =  -717.098074909     A.U. after    8 cycles
 SCF Done:  E(RB3LYP) =  -717.098075498     A.U. after    7 cycles
 Optimization completed.
    -- Stationary point found.
 Normal termination of Gaussian 09 at Wed Oct 13 16:39:54 2021.

 ----------------------------------------------------------------------
 #N Geom=AllCheck Guess=TCheck SCRF=Check GenChk RB3LYP/6-311+G(d,p) Fr
 eq
 ----------------------------------------------------------------------

 Structure from the checkpoint file:  "Figure2_1.chk"
 ---------
 Figure2_1
 ---------
 Charge =  0 Multiplicity = 1

                         Standard orientation:
 ---------------------------------------------------------------------
 Center     Atomic      Atomic             Coordinates (Angstroms)
 Number     Number       Type             X           Y           Z
 ---------------------------------------------------------------------
      1          7           0        0.466472   -0.157073   -0.858520
      2          6           0        1.771212   -0.791484   -1.074643
      3          6           0        2.675650   -0.840450    0.163936
      4          1           0        2.268995   -0.244851   -1.881489
      5          1           0        1.592517   -1.809575   -1.426074
      6          6           0        3.995497   -1.569976   -0.111207
      7          1           0        2.885840    0.177609    0.511355
      8          1           0        2.135206   -1.347897    0.969331
      9          6           0        4.916421   -1.627370    1.110994
     10          1           0        3.777909   -2.589286   -0.451570
     11          1           0        4.520104   -1.076847   -0.939478
     12          1           0        5.846415   -2.156611    0.885421
     13          1           0        5.181052   -0.622474    1.455229
     14          1           0        4.432508   -2.145597    1.944528
     15          6           0        0.286560    1.267594   -1.156689
     16          6           0        0.489148    2.211067    0.036954
     17          1           0       -0.714279    1.411955   -1.566248
     18          1           0        0.998493    1.519696   -1.948906
     19          6           0        0.269160    3.680280   -0.340346
     20          1           0       -0.206154    1.925860    0.833052
     21          1           0        1.500099    2.083357    0.439373
     22          6           0        0.470792    4.640297    0.835749
     23          1           0        0.952489    3.954172   -1.154033
     24          1           0       -0.744544    3.802410   -0.740906
     25          1           0        0.305214    5.678784    0.535986
     26          1           0       -0.222088    4.415510    1.652527
     27          1           0        1.486992    4.568056    1.235843
     28          6           0       -0.537101   -0.944521   -0.365588
     29          8           0       -0.408877   -2.130555   -0.112031
     30          8           0       -1.685207   -0.236485   -0.203073
     31          6           0       -2.920635   -0.881668    0.280083
     32          6           0       -3.369978   -1.966372   -0.702731
     33          6           0       -2.714839   -1.429789    1.695016
     34          6           0       -3.916453    0.279588    0.291790
     35          1           0       -3.461874   -1.551619   -1.710147
     36          1           0       -2.664641   -2.795392   -0.724129
     37          1           0       -4.350705   -2.345582   -0.401906
     38          1           0       -2.347009   -0.642304    2.358251
     39          1           0       -3.671085   -1.784992    2.089463
     40          1           0       -2.004559   -2.254643    1.697905
     41          1           0       -4.893105   -0.068374    0.636898
     42          1           0       -3.575788    1.073144    0.960841
     43          1           0       -4.033227    0.698148   -0.710558
 ---------------------------------------------------------------------

 SCF Done:  E(RB3LYP) =  -717.098075498     A.U. after    1 cycles

 The electronic state is 1-A.
 Alpha  occ. eigenvalues --  -19.14929 -19.08244 -14.33624 -10.30803 -10.24295
 Alpha  occ. eigenvalues --  -10.20498 -10.20025 -10.17134 -10.16747 -10.16652
 Alpha  occ. eigenvalues --  -10.16375 -10.16289 -10.16228 -10.15798 -10.15649
 Alpha  occ. eigenvalues --  -10.15633  -1.09434  -1.00573  -0.93586  -0.81245
 Alpha  occ. eigenvalues --   -0.80330  -0.79080  -0.73773  -0.71928  -0.69576
 Alpha  occ. eigenvalues --   -0.69326  -0.65948  -0.64719  -0.60040  -0.59108
 Alpha  occ. eigenvalues --   -0.58172  -0.53147  -0.51104  -0.48839  -0.47567
 Alpha  occ. eigenvalues --   -0.47079  -0.46767  -0.45375  -0.45098  -0.44219
 Alpha  occ. eigenvalues --   -0.43043  -0.42573  -0.41815  -0.41373  -0.40868
 Alpha  occ. eigenvalues --   -0.39951  -0.39319  -0.38457  -0.37984  -0.36994
 Alpha  occ. eigenvalues --   -0.36750  -0.36117  -0.35995  -0.35311  -0.34718
 Alpha  occ. eigenvalues --   -0.34445  -0.34148  -0.33732  -0.33377  -0.33289
 Alpha  occ. eigenvalues --   -0.32449  -0.29276  -0.26668  -0.23938
 Alpha virt. eigenvalues --   -0.00151   0.00584   0.01037   0.01270   0.02394
 Alpha virt. eigenvalues --    0.02785   0.02845   0.03101   0.03357   0.04311
 Alpha virt. eigenvalues --    0.04621   0.04900   0.05307   0.05437   0.05658

 Mulliken charges:
               1
     1  N    0.081855
     2  C   -0.461724
     3  C    0.147698
     4  H    0.136283
     5  H    0.177054
     6  C   -0.306338
     7  H    0.121056
     8  H    0.164185
     9  C   -0.580991
    10  H    0.145595
    11  H    0.134389
    12  H    0.137668
    13  H    0.131723
    14  H    0.137452
    15  C   -0.722239
    16  C    0.273667
    17  H    0.177149
    18  H    0.147208
    19  C   -0.337358
    20  H    0.148098
    21  H    0.126513
    22  C   -0.568225
    23  H    0.136450
    24  H    0.138606
    25  H    0.138549
    26  H    0.133950
    27  H    0.134173
    28  C    0.139035
    29  O   -0.300836
    30  O    0.036390
    31  C   -0.212426
    32  C   -0.383534
    33  C   -0.321252
    34  C   -0.431827
    35  H    0.143234
    36  H    0.185079
    37  H    0.136885
    38  H    0.141703
    39  H    0.137354
    40  H    0.186786
    41  H    0.146441
    42  H    0.152471
    43  H    0.152050
 Sum of Mulliken charges =   0.00000

 Dipole moment (field-independent basis, Debye):
    X=             -0.1768    Y=              2.2134    Z=             -0.3963  Tot=              2.2555
 Quadrupole moment (field-independent basis, Debye-Ang):
   XX=            -95.7358   YY=           -108.7131   ZZ=           -103.1773
   XY=              1.1185   XZ=             -2.6153   YZ=             -1.0771

  Exact polarizability: 191.545  -0.509 178.655  -1.619  -0.718 149.815
 Approx polarizability: 235.828   2.088 241.342  -6.099  -6.653 218.368

 ESP charges:
               1
     1  N   -0.294109
     2  C    0.016072
     3  C    0.035988
     4  H    0.043480
     5  H    0.020472
     6  C    0.193617
     7  H   -0.002966
     8  H   -0.007672
     9  C   -0.195396
    10  H   -0.029203
    11  H   -0.055204
    12  H    0.041997
    13  H    0.033527
    14  H    0.039913
    15  C   -0.002353
    16  C    0.038316
    17  H    0.012046
    18  H    0.056316
    19  C    0.206327
    20  H   -0.020995
    21  H    0.000120
    22  C   -0.203465
    23  H   -0.054713
    24  H   -0.037821
    25  H    0.043814
    26  H    0.040225
    27  H    0.038220
    28  C    0.712524
    29  O   -0.551840
    30  O   -0.463572
    31  C    0.748585
    32  C   -0.317645
    33  C   -0.348830
    34  C   -0.455198
    35  H    0.055725
    36  H    0.075352
    37  H    0.061061
    38  H    0.069881
    39  H    0.062675
    40  H    0.087470
    41  H    0.089469
    42  H    0.110486
    43  H    0.107302
 Sum of ESP charges =   0.00000

 Summary of Natural Population Analysis:

                                       Natural Population
                Natural  -----------------------------------------------
    Atom  No    Charge         Core      Valence    Rydberg      Total
 -----------------------------------------------------------------------
      N    1   -0.52642      1.99927     5.50292    0.02423     7.52642
      C    2   -0.15978      1.99924     4.14270    0.01785     6.15978
      C    3   -0.39438      1.99926     4.38167    0.01345     6.39438
      H    4    0.18543      0.00000     0.81249    0.00208     0.81457
      H    5    0.21639      0.00000     0.78118    0.00243     0.78361
      C    6   -0.38611      1.99931     4.37426    0.01254     6.38611
      H    7    0.18614      0.00000     0.81120    0.00266     0.81386
      H    8    0.20770      0.00000     0.79013    0.00217     0.79230
      C    9   -0.57080      1.99938     4.56242    0.00900     6.57080
      H   10    0.19324      0.00000     0.80460    0.00216     0.80676
      H   11    0.18556      0.00000     0.81226    0.00218     0.81444
      H   12    0.19942      0.00000     0.79933    0.00124     0.80058
      H   13    0.19197      0.00000     0.80628    0.00174     0.80803
      H   14    0.19579      0.00000     0.80248    0.00173     0.80421
      C   15   -0.16054      1.99923     4.14353    0.01778     6.16054
      C   16   -0.39383      1.99926     4.38103    0.01354     6.39383
      H   17    0.21056      0.00000     0.78725    0.00219     0.78944
      H   18    0.18758      0.00000     0.81031    0.00211     0.81242
      C   19   -0.38616      1.99931     4.37429    0.01256     6.38616
      H   20    0.20172      0.00000     0.79605    0.00223     0.79828
      H   21    0.19003      0.00000     0.80730    0.00267     0.80997
      C   22   -0.57085      1.99938     4.56243    0.00904     6.57085
      H   23    0.18730      0.00000     0.81051    0.00219     0.81270
      H   24    0.19040      0.00000     0.80741    0.00219     0.80960
      H   25    0.19998      0.00000     0.79877    0.00124     0.80002
      H   26    0.19446      0.00000     0.80381    0.00173     0.80554
      H   27    0.19361      0.00000     0.80465    0.00174     0.80639
      C   28    0.94047      1.99929     3.01177    0.04847     5.05953
      O   29   -0.67786      1.99975     6.66763    0.01049     8.67786
      O   30   -0.61342      1.99970     6.59277    0.02096     8.61342
      C   31    0.27380      1.99911     3.70399    0.02310     5.72620
      C   32   -0.60501      1.99923     4.59455    0.01123     6.60501
      C   33   -0.60509      1.99923     4.59450    0.01136     6.60509
      C   34   -0.57970      1.99924     4.56849    0.01198     6.57970
      H   35    0.20379      0.00000     0.79482    0.00139     0.79621
      H   36    0.23279      0.00000     0.76563    0.00159     0.76721
      H   37    0.20367      0.00000     0.79503    0.00130     0.79633
      H   38    0.20341      0.00000     0.79518    0.00141     0.79659
      H   39    0.20347      0.00000     0.79522    0.00131     0.79653
      H   40    0.23345      0.00000     0.76497    0.00158     0.76655
      H   41    0.20410      0.00000     0.79471    0.00119     0.79590
      H   42    0.20679      0.00000     0.79173    0.00148     0.79321
      H   43    0.20694      0.00000     0.79161    0.00146     0.79306
 =======================================================================
   * Total *    0.00000     31.98918    95.69387    0.31694   128.00000

                      1                      2                      3
                      A                      A                      A
 Frequencies --     17.7382                30.5401                39.3652
 Red. masses --      2.8366                 3.4852                 3.2840
 Frc consts  --      0.0005                 0.0019                 0.0030
 IR Inten    --      0.1715                 0.2144                 0.3237

                      4                      5                      6
                      A                      A                      A
 Frequencies --     41.7463                64.4064                70.3294
 Red. masses --      3.4330                 1.6391                 1.6439
 Frc consts  --      0.0035                 0.0040                 0.0048
 IR Inten    --      0.5922                 0.1444                 0.2332

                      7                      8                      9
                      A                      A                      A
 Frequencies --     84.2024               105.5277               121.6292
 Red. masses --      3.5902                 2.4550                 2.4696
 Frc consts  --      0.0150                 0.0161                 0.0215
 IR Inten    --      1.7446                 0.0119                 0.1619

                     10                     11                     12
                      A                      A                      A
 Frequencies --    127.3003               157.8477               166.4649
 Red. masses --      3.8481                 2.9650                 2.9716
 Frc consts  --      0.0367                 0.0435                 0.0485
 IR Inten    --      0.4073                 1.0517                 2.9347

                     13                     14                     15
                      A                      A                      A
 Frequencies --    208.5523               213.9793               233.6687
 Red. masses --      1.1176                 3.3763                 1.1441
 Frc consts  --      0.0286                 0.0911                 0.0368
 IR Inten    --      0.0612                 0.5430                 0.2037

                     16                     17                     18
                      A                      A                      A
 Frequencies --    240.4668               249.3162               264.4642
 Red. masses --      1.1399                 1.1258                 2.3653
 Frc consts  --      0.0388                 0.0412                 0.0975
 IR Inten    --      0.2017                 0.1309                 1.3269

                     19                     20                     21
                      A                      A                      A
 Frequencies --    273.0179               276.1990               327.1878
 Red. masses --      1.0996                 2.5379                 3.5301
 Frc consts  --      0.0483                 0.1141                 0.2227
 IR Inten    --      0.1291                 0.9829                 0.4225

                     22                     23                     24
                      A                      A                      A
 Frequencies --    332.5189               351.3019               399.7262
 Red. masses --      3.1495                 2.5212                 2.9544
 Frc consts  --      0.2052                 0.1833                 0.2781
 IR Inten    --      7.8345                 1.2895                 4.0728

                     25                     26                     27
                      A                      A                      A
 Frequencies --    408.6272               425.9249               451.5626
 Red. masses --      3.0230                 2.7390                 2.8808
 Frc consts  --      0.2974                 0.2928                 0.3461
 IR Inten    --      7.0365                 0.6810                 5.8838

                     28                     29                     30
                      A                      A                      A
 Frequencies --    456.3355               464.6672               573.5335
 Red. masses --      2.5481                 3.0003                 3.2718
 Frc consts  --      0.3126                 0.3817                 0.6341
 IR Inten    --      1.9980                 0.4952                 5.6255

                     31                     32                     33
                      A                      A                      A
 Frequencies --    674.3124               734.9357               739.5436
 Red. masses --      3.9731                 1.0858                 1.0999
 Frc consts  --      1.0644                 0.3455                 0.3544
 IR Inten    --      4.7018                 1.5732                 8.2485

                     34                     35                     36
                      A                      A                      A
 Frequencies --    767.9323               779.6224               792.6511
 Red. masses --      3.3585                 8.5545                 1.2356
 Frc consts  --      1.1669                 3.0635                 0.4574
 IR Inten    --      1.8682                20.5805                 1.0804

                     37                     38                     39
                      A                      A                      A
 Frequencies --    800.6159               852.6978               877.1700
 Red. masses --      1.2965                 5.2032                 3.5158
 Frc consts  --      0.4896                 2.2290                 1.5938
 IR Inten    --      2.7904                 0.2243                61.8816

                     40                     41                     42
                      A                      A                      A
 Frequencies --    907.1762               914.6555               922.8647
 Red. masses --      1.7891                 1.8096                 1.6480
 Frc consts  --      0.8675                 0.8920                 0.8270
 IR Inten    --      3.5998                 5.3104                 0.0136

                     43                     44                     45
                      A                      A                      A
 Frequencies --    925.6119               938.5407               949.0514
 Red. masses --      1.6604                 1.2347                 1.3072
 Frc consts  --      0.8382                 0.6408                 0.6937
 IR Inten    --      1.8753                 6.0731                 1.8404

                     46                     47                     48
                      A                      A                      A
 Frequencies --    969.1979              1006.2041              1012.9465
 Red. masses --      1.2000                 3.7003                 3.5974
 Frc consts  --      0.6642                 2.2073                 2.1748
 IR Inten    --      0.1155                 1.2169                16.2652

                     49                     50                     51
                      A                      A                      A
 Frequencies --   1050.9247              1053.7506              1054.5367
 Red. masses --      1.4116                 2.4227                 1.5756
 Frc consts  --      0.9186                 1.5850                 1.0324
 IR Inten    --      0.5877                 1.4360                 0.3953

                     52                     53                     54
                      A                      A                      A
 Frequencies --   1057.3661              1088.6884              1125.7779
 Red. masses --      2.2496                 2.5747                 2.0935
 Frc consts  --      1.4819                 1.7980                 1.5632
 IR Inten    --      2.6514                45.9993                 3.2080

                     55                     56                     57
                      A                      A                      A
 Frequencies --   1127.6236              1128.5071              1179.9840
 Red. masses --      1.9691                 2.0967                 2.6204
 Frc consts  --      1.4752                 1.5732                 2.1497
 IR Inten    --     36.2741                14.4313               460.5906

                     58                     59                     60
                      A                      A                      A
 Frequencies --   1209.5857              1227.3213              1253.2752
 Red. masses --      2.1673                 2.0140                 1.6406
 Frc consts  --      1.8683                 1.7874                 1.5183
 IR Inten    --     12.8924                 9.9610                79.0111

                     61                     62                     63
                      A                      A                      A
 Frequencies --   1264.1067              1277.6893              1284.1276
 Red. masses --      2.7398                 2.5988                 1.7212
 Frc consts  --      2.5796                 2.4996                 1.6723
 IR Inten    --     14.8237                13.3229                34.5678

                     64                     65                     66
                      A                      A                      A
 Frequencies --   1289.8225              1295.5962              1319.4200
 Red. masses --      1.3007                 1.2984                 1.3672
 Frc consts  --      1.2749                 1.2841                 1.4024
 IR Inten    --      0.5529                 1.5627               101.5978

                     67                     68                     69
                      A                      A                      A
 Frequencies --   1328.3358              1335.9531              1353.3276
 Red. masses --      1.1248                 1.0941                 1.3330
 Frc consts  --      1.1693                 1.1505                 1.4384
 IR Inten    --     31.6249                14.9320                29.6836

                     70                     71                     72
                      A                      A                      A
 Frequencies --   1379.0984              1385.8217              1396.5028
 Red. masses --      1.3822                 1.4500                 1.2725
 Frc consts  --      1.5488                 1.6407                 1.4621
 IR Inten    --      0.0669                 2.8732                21.9639

                     73                     74                     75
                      A                      A                      A
 Frequencies --   1398.1545              1400.4536              1409.8674
 Red. masses --      1.2785                 1.3786                 1.3226
 Frc consts  --      1.4726                 1.5930                 1.5489
 IR Inten    --     30.5039                11.5711                22.3124

                     76                     77                     78
                      A                      A                      A
 Frequencies --   1414.1291              1416.8101              1424.7148
 Red. masses --      1.2370                 1.3383                 1.2417
 Frc consts  --      1.4575                 1.5828                 1.4850
 IR Inten    --      1.0462                35.1748                14.4495

                     79                     80                     81
                      A                      A                      A
 Frequencies --   1439.0343              1469.9143              1473.6890
 Red. masses --      1.8561                 1.0454                 1.0778
 Frc consts  --      2.2646                 1.3308                 1.3791
 IR Inten    --    163.9392                 0.2341                10.9954

                     82                     83                     84
                      A                      A                      A
 Frequencies --   1487.0176              1490.1995              1491.3059
 Red. masses --      1.0718                 1.0585                 1.0570
 Frc consts  --      1.3964                 1.3849                 1.3850
 IR Inten    --      1.1794                 0.7480                 4.4371

                     85                     86                     87
                      A                      A                      A
 Frequencies --   1492.1267              1493.9090              1495.6316
 Red. masses --      1.0526                 1.1138                 1.0739
 Frc consts  --      1.3808                 1.4645                 1.4153
 IR Inten    --      2.8017                18.2971                24.6382

                     88                     89                     90
                      A                      A                      A
 Frequencies --   1496.9581              1498.6335              1499.9033
 Red. masses --      1.0659                 1.0397                 1.0397
 Frc consts  --      1.4073                 1.3757                 1.3782
 IR Inten    --      4.6556                 8.1655                 8.5011

                     91                     92                     93
                      A                      A                      A
 Frequencies --   1502.0527              1505.8093              1510.0775
 Red. masses --      1.1011                 1.0520                 1.0875
 Frc consts  --      1.4637                 1.4055                 1.4611
 IR Inten    --     17.0398                 1.7350                 3.9621

                     94                     95                     96
                      A                      A                      A
 Frequencies --   1512.7629              1528.0466              1733.6690
 Red. masses --      1.0984                 1.0589                10.2907
 Frc consts  --      1.4810                 1.4567                18.2232
 IR Inten    --     20.7573                29.4292               421.1244

                     97                     98                     99
                      A                      A                      A
 Frequencies --   3001.9111              3002.0851              3015.7814
 Red. masses --      1.0595                 1.0603                 1.0547
 Frc consts  --      5.6254                 5.6301                 5.6519
 IR Inten    --      5.9964                37.7205                22.6087

                    100                    101                    102
                      A                      A                      A
 Frequencies --   3018.3575              3019.6103              3024.1065
 Red. masses --      1.0391                 1.0470                 1.0820
 Frc consts  --      5.5778                 5.6245                 5.8300
 IR Inten    --     36.6042                 3.3548                18.3863

                    103                    104                    105
                      A                      A                      A
 Frequencies --   3026.5766              3029.5674              3031.9613
 Red. masses --      1.0773                 1.0796                 1.0728
 Frc consts  --      5.8140                 5.8380                 5.8105
 IR Inten    --      9.8582                23.8159                11.7421

                    106                    107                    108
                      A                      A                      A
 Frequencies --   3032.1054              3032.2124              3040.1579
 Red. masses --      1.0390                 1.0380                 1.0440
 Frc consts  --      5.6278                 5.6230                 5.6853
 IR Inten    --     18.5310                27.6832                52.7588

                    109                    110                    111
                      A                      A                      A
 Frequencies --   3040.9176              3061.4645              3064.2154
 Red. masses --      1.0608                 1.0975                 1.0983
 Frc consts  --      5.7793                 6.0604                 6.0756
 IR Inten    --     51.8261                 0.1962                24.1566

                    112                    113                    114
                      A                      A                      A
 Frequencies --   3079.5439              3080.6909              3083.9852
 Red. masses --      1.1021                 1.1021                 1.1012
 Frc consts  --      6.1578                 6.1629                 6.1707
 IR Inten    --     40.7910                58.0662                50.8850

                    115                    116                    117
                      A                      A                      A
 Frequencies --   3084.5570              3090.9070              3093.1611
 Red. masses --      1.1011                 1.1018                 1.1016
 Frc consts  --      6.1727                 6.2016                 6.2096
 IR Inten    --     46.2530                 8.1234                21.5222

                    118                    119                    120
                      A                      A                      A
 Frequencies --   3093.4540              3098.5593              3105.5549
 Red. masses --      1.1015                 1.1027                 1.1026
 Frc consts  --      6.2107                 6.2376                 6.2654
 IR Inten    --     35.8666                46.7836                31.1643

                    121                    122                    123
                      A                      A                      A
 Frequencies --   3107.3184              3138.8190              3141.9750
 Red. masses --      1.1017                 1.0995                 1.0989
 Frc consts  --      6.2672                 6.3821                 6.3915
 IR Inten    --     50.2218                 0.6582                11.1986

 - Thermochemistry -
 -------------------
 Temperature   298.150 Kelvin.  Pressure   1.00000 Atm.
 Atom     1 has atomic number  7 and mass  14.00307

 Molecular mass:   229.20418 amu.
 Principal axes and moments of inertia in atomic units:
                           1         2         3
     Eigenvalues --  3797.860875694.476108372.68439
           X            0.99996  -0.00862   0.00197
           Y            0.00862   0.99996   0.00021
           Z           -0.00197  -0.00019   1.00000
 This molecule is an asymmetric top.
 Rotational symmetry number  1.
 Warning -- assumption of classical behavior for rotation
           may cause significant error
 Rotational temperatures (Kelvin)      0.02281     0.01521     0.01034
 Rotational constants (GHZ):           0.47520     0.31693     0.21555
 Zero-point vibrational energy    1019430.4 (Joules/Mol)
                                  243.64970 (Kcal/Mol)
 Warning -- explicit consideration of  30 degrees of freedom as
           vibrations may cause significant error
 Vibrational temperatures:     25.52    43.94    56.64    60.06    92.67
          (Kelvin)            101.19   121.15   151.83   175.00   183.16
                              227.11   239.51   300.06   307.87   336.20
                              345.98   358.71   380.50   392.81   397.39
                              470.75   478.42   505.44   575.12   587.92
                              612.81   649.70   656.56   668.55   825.19
                              970.18  1057.41  1064.04  1104.88  1121.70
                             1140.45  1151.91  1226.84  1262.05  1305.22
                             1315.98  1327.79  1331.75  1350.35  1365.47
                             1394.46  1447.70  1457.40  1512.04  1516.11
                             1517.24  1521.31  1566.38  1619.74  1622.40
                             1623.67  1697.73  1740.32  1765.84  1803.18
                             1818.77  1838.31  1847.57  1855.76  1864.07
                             1898.35  1911.18  1922.14  1947.13  1984.21
                             1993.89  2009.25  2011.63  2014.94  2028.48
                             2034.61  2038.47  2049.84  2070.45  2114.88
                             2120.31  2139.48  2144.06  2145.65  2146.83
                             2149.40  2151.88  2153.79  2156.20  2158.02
                             2161.12  2166.52  2172.66  2176.53  2198.52
                             2494.36  4319.08  4319.33  4339.03  4342.74
                             4344.54  4351.01  4354.56  4358.87  4362.31
                             4362.52  4362.67  4374.10  4375.20  4404.76
                             4408.72  4430.77  4432.42  4437.16  4437.98
                             4447.12  4450.36  4450.78  4458.13  4468.20
                             4470.73  4516.05  4520.60

 Zero-point correction=                           0.388281 (Hartree/Particle)
 Thermal correction to Energy=                    0.408952
 Thermal correction to Enthalpy=                  0.409896
 Thermal correction to Gibbs Free Energy=         0.336967
 Sum of electronic and zero-point Energies=           -716.709795
 Sum of electronic and thermal Energies=              -716.689124
 Sum of electronic and thermal Enthalpies=            -716.688180
 Sum of electronic and thermal Free Energies=         -716.761108

                     E (Thermal)             CV                S
                      KCal/Mol        Cal/Mol-Kelvin    Cal/Mol-Kelvin
 Total                  256.621             74.657            153.490
 Electronic               0.000              0.000              0.000
 Translational            0.889              2.981             42.190
 Rotational               0.889              2.981             33.559
 Vibrational            254.844             68.696             77.741
 Vibration     1          0.593              1.986              6.873
 Vibration     2          0.594              1.984              5.794
 Vibration     3          0.594              1.981              5.291
 Vibration     4          0.594              1.980              5.174
 Vibration     5          0.597              1.971              4.317
 Vibration     6          0.598              1.968              4.144
 Vibration     7          0.601              1.960              3.790
 Vibration     8          0.605              1.945              3.350
 Vibration     9          0.609              1.931              3.074
 Vibration    10          0.611              1.926              2.986
 Vibration    11          0.621              1.894              2.575
 Vibration    12          0.624              1.884              2.475
 Vibration    13          0.642              1.828              2.056
 Vibration    14          0.644              1.820              2.009
 Vibration    15          0.654              1.789              1.851
 Vibration    16          0.658              1.778              1.799
 Vibration    17          0.662              1.764              1.735
 Vibration    18          0.671              1.738              1.632
 Vibration    19          0.676              1.723              1.577
 Vibration    20          0.678              1.717              1.557
 Vibration    21          0.711              1.621              1.274
 Vibration    22          0.714              1.611              1.248
 Vibration    23          0.728              1.573              1.160
 Vibration    24          0.766              1.471              0.964
 Vibration    25          0.773              1.451              0.931
 Vibration    26          0.788              1.414              0.872
 Vibration    27          0.810              1.357              0.791
 Vibration    28          0.815              1.347              0.777
 Vibration    29          0.822              1.328              0.753
 Vibration    30          0.930              1.088              0.497

 Normal termination of Gaussian 09 at Wed Oct 13 17:19:59 2021.
