 Gaussian 09, Revision D.01,
 Gaussian 09:  ES64L-G09RevD.01 24-Apr-2013

 ---------------------------------------------------------------------
 # b3lyp/6-311+g(d,p) geom=connectivity pop=(hirshfeld,chelpg,mbs,npa)
 ---------------------------------------------------------------------

 --------
 Table9_3
 --------
 Symbolic Z-matrix:
 Charge =  0 Multiplicity = 1

                         Standard orientation:
 ---------------------------------------------------------------------
 Center     Atomic      Atomic             Coordinates (Angstroms)
 Number     Number       Type             X           Y           Z
 ---------------------------------------------------------------------
      1          6           0        0.734974    0.768515   -0.000065
      2          6           0        0.547556   -0.640105   -0.000285
      3          6           0       -0.752332   -1.157177   -0.000199
      4          6           0       -1.831122   -0.277576   -0.000362
      5          6           0       -1.629463    1.116721   -0.000400
      6          6           0       -0.340646    1.648256   -0.000135
      7          6           0        2.777229   -0.211658   -0.000075
      8          6           0        1.858224   -1.230341   -0.000333
      9          1           0       -0.942638   -2.223829   -0.000331
     10          1           0       -2.472070    1.794104   -0.000638
     11          1           0       -0.196328    2.723225   -0.000160
     12          1           0        2.541371    1.903156   -0.005018
     13          1           0        2.094741   -2.283352   -0.000038
     14          7           0        2.102126    0.998010    0.001150
     15          6           0        4.269508   -0.259448    0.000395
     16          1           0        4.690092    0.234838   -0.882352
     17          1           0        4.689230    0.230675    0.885853
     18          1           0        4.610707   -1.295096   -0.001963
     19          8           0       -3.075055   -0.864692   -0.000318
     20          6           0       -4.221618   -0.032222    0.000786
     21          1           0       -5.078693   -0.704708    0.001672
     22          1           0       -4.261584    0.601393    0.894675
     23          1           0       -4.263133    0.601265   -0.893170
 ---------------------------------------------------------------------

 SCF Done:  E(RB3LYP) =  -517.797612862     A.U. after   14 cycles

 The electronic state is 1-A.
 Alpha  occ. eigenvalues --  -19.14173 -14.35221 -10.22122 -10.21834 -10.21172
 Alpha  occ. eigenvalues --  -10.19863 -10.18227 -10.17427 -10.16938 -10.16656
 Alpha  occ. eigenvalues --  -10.15931 -10.15437  -1.05590  -0.97922  -0.84061
 Alpha  occ. eigenvalues --   -0.78730  -0.76090  -0.74574  -0.69372  -0.68501
 Alpha  occ. eigenvalues --   -0.61274  -0.58675  -0.57840  -0.53695  -0.51311
 Alpha  occ. eigenvalues --   -0.48180  -0.46322  -0.45853  -0.44545  -0.43972
 Alpha  occ. eigenvalues --   -0.42437  -0.41676  -0.40775  -0.40208  -0.38945
 Alpha  occ. eigenvalues --   -0.37759  -0.35675  -0.35213  -0.32301  -0.29692
 Alpha  occ. eigenvalues --   -0.27779  -0.20890  -0.19885
 Alpha virt. eigenvalues --   -0.01782  -0.00622   0.00693   0.01621   0.02330
 Alpha virt. eigenvalues --    0.02875   0.03201   0.03791   0.04086   0.05067
 Alpha virt. eigenvalues --    0.05176   0.05328   0.06535   0.06863   0.07264

 Mulliken charges:
               1
     1  C   -0.743135
     2  C    1.746329
     3  C   -0.944598
     4  C   -0.446503
     5  C    0.288083
     6  C   -0.864287
     7  C   -0.062486
     8  C    0.350283
     9  H    0.113838
    10  H    0.116704
    11  H    0.104010
    12  H    0.276725
    13  H    0.107015
    14  N   -0.110233
    15  C   -0.372004
    16  H    0.150447
    17  H    0.150836
    18  H    0.155553
    19  O   -0.191695
    20  C   -0.256892
    21  H    0.153243
    22  H    0.139394
    23  H    0.139373
 Sum of Mulliken charges =   0.00000

 Dipole moment (field-independent basis, Debye):
    X=              1.5783    Y=              2.3069    Z=             -0.0065  Tot=              2.7951
 Quadrupole moment (field-independent basis, Debye-Ang):
   XX=            -54.5270   YY=            -65.7609   ZZ=            -76.4196
   XY=             -0.6555   XZ=             -0.0273   YZ=             -0.0230

 ESP charges:
               1
     1  C    0.114753
     2  C    0.339820
     3  C   -0.489548
     4  C    0.469535
     5  C   -0.310598
     6  C   -0.197584
     7  C    0.249649
     8  C   -0.496926
     9  H    0.185060
    10  H    0.146242
    11  H    0.129519
    12  H    0.358982
    13  H    0.186551
    14  N   -0.492079
    15  C   -0.128507
    16  H    0.043352
    17  H    0.043713
    18  H    0.059765
    19  O   -0.444171
    20  C    0.244736
    21  H    0.023812
    22  H   -0.017947
    23  H   -0.018129
 Sum of ESP charges =   0.00000

 Summary of Natural Population Analysis:

                                       Natural Population
                Natural  -----------------------------------------------
    Atom  No    Charge         Core      Valence    Rydberg      Total
 -----------------------------------------------------------------------
      C    1    0.13619      1.99895     3.84512    0.01974     5.86381
      C    2   -0.07044      1.99902     4.05566    0.01576     6.07044
      C    3   -0.23266      1.99899     4.21697    0.01670     6.23266
      C    4    0.30314      1.99879     3.67531    0.02276     5.69686
      C    5   -0.29215      1.99910     4.27696    0.01610     6.29215
      C    6   -0.22085      1.99909     4.20526    0.01650     6.22085
      C    7    0.18426      1.99912     3.79636    0.02025     5.81574
      C    8   -0.29499      1.99894     4.27976    0.01628     6.29499
      H    9    0.21645      0.00000     0.78022    0.00333     0.78355
      H   10    0.20919      0.00000     0.78894    0.00187     0.79081
      H   11    0.20512      0.00000     0.79301    0.00187     0.79488
      H   12    0.39827      0.00000     0.59840    0.00333     0.60173
      H   13    0.21689      0.00000     0.78157    0.00154     0.78311
      N   14   -0.55998      1.99926     5.54586    0.01486     7.55998
      C   15   -0.60570      1.99929     4.59757    0.00885     6.60570
      H   16    0.21064      0.00000     0.78751    0.00185     0.78936
      H   17    0.21080      0.00000     0.78735    0.00185     0.78920
      H   18    0.22207      0.00000     0.77680    0.00113     0.77793
      O   19   -0.55107      1.99972     6.53403    0.01732     8.55107
      C   20   -0.20569      1.99927     4.19036    0.01606     6.20569
      H   21    0.18889      0.00000     0.80999    0.00112     0.81111
      H   22    0.16582      0.00000     0.83166    0.00251     0.83418
      H   23    0.16580      0.00000     0.83168    0.00251     0.83420
 =======================================================================
   * Total *    0.00000     23.98954    61.78635    0.22411    86.00000

 Normal termination of Gaussian 09 at Fri Jul 23 17:40:11 2021.
