 Gaussian 09, Revision D.01,
 Gaussian 09:  ES64L-G09RevD.01 24-Apr-2013

 ----------------------------------------------------------------------
 # opt freq b3lyp/6-311+g(d,p) geom=connectivity pop=(hirshfeld,chelpg,
 mbs,npa)
 ----------------------------------------------------------------------

 -------------------
 Title Card Required
 -------------------
 Symbolic Z-matrix:
 Charge =  0 Multiplicity = 1

 SCF Done:  E(RB3LYP) =  -251.945774029     A.U. after   11 cycles
 SCF Done:  E(RB3LYP) =  -251.960440319     A.U. after   10 cycles
 SCF Done:  E(RB3LYP) =  -251.964741356     A.U. after   10 cycles
 SCF Done:  E(RB3LYP) =  -251.965846121     A.U. after   10 cycles
 SCF Done:  E(RB3LYP) =  -251.965934396     A.U. after    9 cycles
 SCF Done:  E(RB3LYP) =  -251.965980626     A.U. after    9 cycles
 SCF Done:  E(RB3LYP) =  -251.966094169     A.U. after   10 cycles
 SCF Done:  E(RB3LYP) =  -251.966129614     A.U. after    9 cycles
 SCF Done:  E(RB3LYP) =  -251.966133463     A.U. after    9 cycles
 SCF Done:  E(RB3LYP) =  -251.966137227     A.U. after    8 cycles
 SCF Done:  E(RB3LYP) =  -251.966137537     A.U. after    7 cycles
 Optimization completed.
    -- Stationary point found.
 Normal termination of Gaussian 09 at Tue Nov  2 15:46:42 2021.

 ----------------------------------------------------------------------
 #N Geom=AllCheck Guess=TCheck SCRF=Check GenChk RB3LYP/6-311+G(d,p) Fr
 eq
 ----------------------------------------------------------------------

 Structure from the checkpoint file:  "Table1_3.chk"
 -------------------
 Title Card Required
 -------------------
 Charge =  0 Multiplicity = 1

                         Standard orientation:
 ---------------------------------------------------------------------
 Center     Atomic      Atomic             Coordinates (Angstroms)
 Number     Number       Type             X           Y           Z
 ---------------------------------------------------------------------
      1          6           0        2.128814    0.000002   -0.023121
      2          1           0        2.608215   -0.883892   -0.451793
      3          1           0        2.608293    0.883921   -0.451664
      4          1           0        2.318918   -0.000089    1.067578
      5          6           0       -0.022104   -1.158392    0.159084
      6          1           0        0.178747   -1.320893    1.236730
      7          1           0        0.275553   -2.065986   -0.372896
      8          6           0       -1.497384    0.778403   -0.057123
      9          1           0       -1.854846    1.161253   -1.014911
     10          1           0       -2.137161    1.196562    0.722602
     11          6           0       -0.022129    1.158317    0.159377
     12          1           0        0.275743    2.066155   -0.372081
     13          1           0        0.178371    1.320316    1.237183
     14          7           0        0.714629    0.000059   -0.342757
     15          6           0       -1.497487   -0.778348   -0.056731
     16          1           0       -2.136747   -1.195996    0.723677
     17          1           0       -1.855746   -1.161655   -1.014044
 ---------------------------------------------------------------------

 SCF Done:  E(RB3LYP) =  -251.966137537     A.U. after    1 cycles

 The electronic state is 1-A.
 Alpha  occ. eigenvalues --  -14.30129 -10.18864 -10.18863 -10.18508 -10.16600
 Alpha  occ. eigenvalues --  -10.16582  -0.93247  -0.78011  -0.72364  -0.67416
 Alpha  occ. eigenvalues --   -0.58096  -0.57405  -0.49236  -0.48745  -0.44552
 Alpha  occ. eigenvalues --   -0.43070  -0.40899  -0.38129  -0.36169  -0.36073
 Alpha  occ. eigenvalues --   -0.34404  -0.33771  -0.32227  -0.21757
 Alpha virt. eigenvalues --    0.00579   0.02002   0.02774   0.02802   0.04632
 Alpha virt. eigenvalues --    0.04683   0.05712   0.06067   0.06237   0.08096
 Alpha virt. eigenvalues --    0.08747   0.09806   0.10382   0.10602   0.11440

 Mulliken charges:
               1
     1  C   -0.286819
     2  H    0.129602
     3  H    0.129605
     4  H    0.116214
     5  C   -0.280395
     6  H    0.122112
     7  H    0.143111
     8  C   -0.319921
     9  H    0.150208
    10  H    0.145975
    11  C   -0.280298
    12  H    0.143103
    13  H    0.122102
    14  N   -0.010996
    15  C   -0.319777
    16  H    0.145977
    17  H    0.150196
 Sum of Mulliken charges =   0.00000

 Dipole moment (field-independent basis, Debye):
    X=             -0.1238    Y=             -0.0001    Z=              0.5395  Tot=              0.5535
 Quadrupole moment (field-independent basis, Debye-Ang):
   XX=            -38.6462   YY=            -38.6467   ZZ=            -41.4560
   XY=              0.0002   XZ=             -0.0110   YZ=              0.0005

  Exact polarizability:  74.516   0.000  68.391   1.127   0.000  62.091
 Approx polarizability:  91.143   0.000  92.386   0.627   0.000  92.949

 ESP charges:
               1
     1  C    0.001572
     2  H    0.055963
     3  H    0.055970
     4  H    0.014385
     5  C    0.117462
     6  H    0.001508
     7  H    0.026948
     8  C    0.044927
     9  H   -0.009064
    10  H   -0.018484
    11  C    0.117401
    12  H    0.026938
    13  H    0.001545
    14  N   -0.454369
    15  C    0.044774
    16  H   -0.018394
    17  H   -0.009083
 Sum of ESP charges =   0.00000

 Summary of Natural Population Analysis:

                                       Natural Population
                Natural  -----------------------------------------------
    Atom  No    Charge         Core      Valence    Rydberg      Total
 -----------------------------------------------------------------------
      C    1   -0.35366      1.99936     4.34038    0.01391     6.35366
      H    2    0.19284      0.00000     0.80573    0.00143     0.80716
      H    3    0.19284      0.00000     0.80573    0.00143     0.80716
      H    4    0.15909      0.00000     0.83719    0.00372     0.84091
      C    5   -0.17062      1.99930     4.15308    0.01824     6.17062
      H    6    0.15749      0.00000     0.83909    0.00342     0.84251
      H    7    0.19448      0.00000     0.80355    0.00196     0.80552
      C    8   -0.39280      1.99931     4.38024    0.01325     6.39280
      H    9    0.20043      0.00000     0.79768    0.00189     0.79957
      H   10    0.19940      0.00000     0.79884    0.00176     0.80060
      C   11   -0.17063      1.99930     4.15308    0.01824     6.17063
      H   12    0.19449      0.00000     0.80355    0.00196     0.80551
      H   13    0.15748      0.00000     0.83910    0.00342     0.84252
      N   14   -0.56783      1.99943     5.53394    0.03447     7.56783
      C   15   -0.39281      1.99931     4.38025    0.01325     6.39281
      H   16    0.19939      0.00000     0.79885    0.00176     0.80061
      H   17    0.20043      0.00000     0.79768    0.00189     0.79957
 =======================================================================
   * Total *    0.00000     11.99602    35.86796    0.13602    48.00000

                      1                      2                      3
                      A                      A                      A
 Frequencies --     85.3100               185.7289               245.3742
 Red. masses --      1.5668                 2.2233                 1.0492
 Frc consts  --      0.0067                 0.0452                 0.0372
 IR Inten    --      0.0026                 2.4350                 0.4858

                      4                      5                      6
                      A                      A                      A
 Frequencies --    342.4576               360.3862               572.1276
 Red. masses --      2.3571                 2.0420                 3.3366
 Frc consts  --      0.1629                 0.1563                 0.6435
 IR Inten    --      0.1108                 7.5990                 2.0210

                      7                      8                      9
                      A                      A                      A
 Frequencies --    651.3707               758.9030               864.4253
 Red. masses --      2.8396                 1.2724                 1.5149
 Frc consts  --      0.7098                 0.4318                 0.6669
 IR Inten    --      0.6080                 2.5262                 3.3240

                     10                     11                     12
                      A                      A                      A
 Frequencies --    883.7162               902.0740               952.5020
 Red. masses --      3.4928                 2.3571                 2.0627
 Frc consts  --      1.6071                 1.1301                 1.1026
 IR Inten    --     15.1334                 5.7329                 0.0094

                     13                     14                     15
                      A                      A                      A
 Frequencies --    977.5848              1049.5873              1057.0722
 Red. masses --      1.6943                 2.0800                 1.8373
 Frc consts  --      0.9540                 1.3501                 1.2096
 IR Inten    --      0.9750                 1.8095                14.6303

                     16                     17                     18
                      A                      A                      A
 Frequencies --   1122.0755              1133.7688              1171.9376
 Red. masses --      1.6015                 1.2858                 2.1572
 Frc consts  --      1.1880                 0.9738                 1.7456
 IR Inten    --      0.5289                11.1028                31.7684

                     19                     20                     21
                      A                      A                      A
 Frequencies --   1203.6903              1229.0225              1243.1908
 Red. masses --      1.4598                 1.4733                 1.3863
 Frc consts  --      1.2462                 1.3111                 1.2623
 IR Inten    --      0.7049                13.7503                 6.1582

                     22                     23                     24
                      A                      A                      A
 Frequencies --   1271.4022              1290.7690              1316.4815
 Red. masses --      1.8173                 1.4372                 1.2167
 Frc consts  --      1.7308                 1.4108                 1.2424
 IR Inten    --     17.0112                12.8626                 4.8516

                     25                     26                     27
                      A                      A                      A
 Frequencies --   1323.1586              1365.0213              1385.8796
 Red. masses --      1.3525                 1.4672                 1.5153
 Frc consts  --      1.3952                 1.6107                 1.7148
 IR Inten    --      0.6991                 0.5469                14.1432

                     28                     29                     30
                      A                      A                      A
 Frequencies --   1452.1072              1487.2477              1489.3892
 Red. masses --      1.1922                 1.0449                 1.0770
 Frc consts  --      1.4812                 1.3617                 1.4076
 IR Inten    --      1.0500                14.6275                 2.7588

                     31                     32                     33
                      A                      A                      A
 Frequencies --   1499.1124              1506.7085              1509.4001
 Red. masses --      1.0632                 1.0892                 1.0751
 Frc consts  --      1.4078                 1.4568                 1.4432
 IR Inten    --      4.4418                 7.8507                 0.3584

                     34                     35                     36
                      A                      A                      A
 Frequencies --   1528.6898              2877.1487              2884.0899
 Red. masses --      1.1092                 1.0739                 1.0721
 Frc consts  --      1.5272                 5.2379                 5.2542
 IR Inten    --      3.4989                49.1512                65.4195

                     37                     38                     39
                      A                      A                      A
 Frequencies --   2902.4163              3048.5211              3050.7845
 Red. masses --      1.0644                 1.0653                 1.0688
 Frc consts  --      5.2830                 5.8331                 5.8612
 IR Inten    --    200.7906                 2.3684                27.1587

                     40                     41                     42
                      A                      A                      A
 Frequencies --   3054.5794              3058.0260              3066.7951
 Red. masses --      1.0746                 1.0802                 1.0717
 Frc consts  --      5.9076                 5.9514                 5.9389
 IR Inten    --     54.8872                91.8872                21.7908

                     43                     44                     45
                      A                      A                      A
 Frequencies --   3081.8593              3091.7880              3103.6510
 Red. masses --      1.1066                 1.1036                 1.1065
 Frc consts  --      6.1925                 6.2155                 6.2797
 IR Inten    --      0.4400                28.5723                59.8776

 - Thermochemistry -
 -------------------
 Temperature   298.150 Kelvin.  Pressure   1.00000 Atm.
 Atom     1 has atomic number  6 and mass  12.00000

 Molecular mass:    85.08915 amu.
 Principal axes and moments of inertia in atomic units:
                           1         2         3
     Eigenvalues --   272.84381 575.72862 774.56177
           X            0.99997   0.00000   0.00732
           Y            0.00000   1.00000   0.00000
           Z           -0.00732   0.00000   0.99997
 This molecule is an asymmetric top.
 Rotational symmetry number  1.
 Rotational temperatures (Kelvin)      0.31745     0.15044     0.11182
 Rotational constants (GHZ):           6.61456     3.13471     2.33002
 Zero-point vibrational energy     410542.4 (Joules/Mol)
                                   98.12199 (Kcal/Mol)
 Warning -- explicit consideration of   6 degrees of freedom as
           vibrations may cause significant error
 Vibrational temperatures:    122.74   267.22   353.04   492.72   518.51
          (Kelvin)            823.16   937.18  1091.89  1243.71  1271.47
                             1297.88  1370.44  1406.52  1510.12  1520.89
                             1614.41  1631.24  1686.15  1731.84  1768.29
                             1788.67  1829.26  1857.13  1894.12  1903.73
                             1963.96  1993.97  2089.26  2139.81  2142.90
                             2156.89  2167.81  2171.69  2199.44  4139.57
                             4149.56  4175.92  4386.14  4389.39  4394.85
                             4399.81  4412.43  4434.10  4448.39  4465.46

 Zero-point correction=                           0.156367 (Hartree/Particle)
 Thermal correction to Energy=                    0.162682
 Thermal correction to Enthalpy=                  0.163627
 Thermal correction to Gibbs Free Energy=         0.126525
 Sum of electronic and zero-point Energies=           -251.809770
 Sum of electronic and thermal Energies=              -251.803455
 Sum of electronic and thermal Enthalpies=            -251.802511
 Sum of electronic and thermal Free Energies=         -251.839613

                     E (Thermal)             CV                S
                      KCal/Mol        Cal/Mol-Kelvin    Cal/Mol-Kelvin
 Total                  102.085             23.146             78.088
 Electronic               0.000              0.000              0.000
 Translational            0.889              2.981             39.237
 Rotational               0.889              2.981             26.301
 Vibrational            100.307             17.184             12.550
 Vibration     1          0.601              1.959              3.765
 Vibration     2          0.632              1.859              2.270
 Vibration     3          0.660              1.770              1.764
 Vibration     4          0.722              1.591              1.201
 Vibration     5          0.735              1.554              1.120
 Vibration     6          0.928              1.092              0.500

 Normal termination of Gaussian 09 at Tue Nov  2 15:47:34 2021.
