 Gaussian 09, Revision D.01,
 Gaussian 09:  ES64L-G09RevD.01 24-Apr-2013

 ----------------------------------------------------------------------
 # opt freq b3lyp/6-311+g(d,p) geom=connectivity pop=(hirshfeld,chelpg,
 mbs,npa)
 ----------------------------------------------------------------------

 -------------------
 Title Card Required
 -------------------
 Symbolic Z-matrix:
 Charge =  0 Multiplicity = 1

 SCF Done:  E(RB3LYP) =  -291.256328574     A.U. after   12 cycles
 SCF Done:  E(RB3LYP) =  -291.276237423     A.U. after   10 cycles
 SCF Done:  E(RB3LYP) =  -291.282873712     A.U. after   10 cycles
 SCF Done:  E(RB3LYP) =  -291.285016328     A.U. after   10 cycles
 SCF Done:  E(RB3LYP) =  -291.285669881     A.U. after    9 cycles
 SCF Done:  E(RB3LYP) =  -291.286142749     A.U. after   10 cycles
 SCF Done:  E(RB3LYP) =  -291.286186904     A.U. after    8 cycles
 SCF Done:  E(RB3LYP) =  -291.286195942     A.U. after    8 cycles
 SCF Done:  E(RB3LYP) =  -291.286197635     A.U. after    8 cycles
 SCF Done:  E(RB3LYP) =  -291.286197916     A.U. after    7 cycles
 Optimization completed.
    -- Stationary point found.
 Normal termination of Gaussian 09 at Tue Nov  2 15:47:01 2021.

 ----------------------------------------------------------------------
 #N Geom=AllCheck Guess=TCheck SCRF=Check GenChk RB3LYP/6-311+G(d,p) Fr
 eq
 ----------------------------------------------------------------------

 Structure from the checkpoint file:  "Table1_2.chk"
 -------------------
 Title Card Required
 -------------------
 Charge =  0 Multiplicity = 1

                         Standard orientation:
 ---------------------------------------------------------------------
 Center     Atomic      Atomic             Coordinates (Angstroms)
 Number     Number       Type             X           Y           Z
 ---------------------------------------------------------------------
      1          6           0        0.483871    2.315092    0.000000
      2          1           0        1.032392    2.647726    0.885190
      3          1           0        1.032392    2.647726   -0.885190
      4          1           0       -0.502354    2.818378    0.000000
      5          6           0       -0.278069    0.368316    1.208187
      6          1           0       -1.316657    0.749995    1.270090
      7          1           0        0.256237    0.779340    2.068890
      8          6           0       -0.278069   -1.183441    1.259688
      9          1           0       -1.306827   -1.546206    1.355598
     10          1           0        0.256169   -1.530644    2.148337
     11          6           0       -0.278069   -1.183441   -1.259688
     12          1           0        0.256169   -1.530644   -2.148337
     13          1           0       -1.306827   -1.546206   -1.355598
     14          6           0       -0.278069    0.368316   -1.208187
     15          1           0        0.256237    0.779340   -2.068890
     16          1           0       -1.316657    0.749995   -1.270090
     17          7           0        0.378531    0.866608    0.000000
     18          6           0        0.354296   -1.787866    0.000000
     19          1           0        0.225035   -2.874628    0.000000
     20          1           0        1.429629   -1.592283    0.000000
 ---------------------------------------------------------------------

 SCF Done:  E(RB3LYP) =  -291.286197916     A.U. after    1 cycles

 The electronic state is 1-A'.
 Alpha  occ. eigenvalues --  -14.30129 -10.18892 -10.18891 -10.18428 -10.16352
 Alpha  occ. eigenvalues --  -10.16352 -10.16088  -0.92596  -0.79208  -0.74750
 Alpha  occ. eigenvalues --   -0.69046  -0.62726  -0.61617  -0.52863  -0.49165
 Alpha  occ. eigenvalues --   -0.48514  -0.46266  -0.42731  -0.41751  -0.39413
 Alpha  occ. eigenvalues --   -0.38670  -0.38637  -0.36201  -0.35016  -0.32814
 Alpha  occ. eigenvalues --   -0.31491  -0.31147  -0.21391
 Alpha virt. eigenvalues --    0.00365   0.01749   0.02418   0.02515   0.04335
 Alpha virt. eigenvalues --    0.04509   0.04917   0.05535   0.05591   0.07571
 Alpha virt. eigenvalues --    0.08362   0.08762   0.09500   0.09667   0.10037

 Mulliken charges:
               1
     1  C   -0.244730
     2  H    0.126709
     3  H    0.126709
     4  H    0.116379
     5  C   -0.267787
     6  H    0.118448
     7  H    0.134866
     8  C   -0.311083
     9  H    0.146200
    10  H    0.142818
    11  C   -0.311083
    12  H    0.142818
    13  H    0.146200
    14  C   -0.267787
    15  H    0.134866
    16  H    0.118448
    17  N    0.061871
    18  C   -0.414684
    19  H    0.142855
    20  H    0.157966
 Sum of Mulliken charges =   0.00000

 Dipole moment (field-independent basis, Debye):
    X=             -0.3503    Y=              0.0251    Z=              0.0000  Tot=              0.3512
 Quadrupole moment (field-independent basis, Debye-Ang):
   XX=            -47.9643   YY=            -45.7706   ZZ=            -45.2161
   XY=              0.7382   XZ=              0.0000   YZ=              0.0000

  Exact polarizability:  71.995   0.249  87.410   0.000   0.000  80.000
 Approx polarizability: 109.081  -0.764 107.666   0.000   0.000 107.748

 ESP charges:
               1
     1  C   -0.217159
     2  H    0.107185
     3  H    0.107185
     4  H    0.056039
     5  C    0.348052
     6  H   -0.060632
     7  H   -0.014280
     8  C   -0.196797
     9  H    0.018406
    10  H    0.017504
    11  C   -0.196797
    12  H    0.017504
    13  H    0.018406
    14  C    0.348052
    15  H   -0.014280
    16  H   -0.060632
    17  N   -0.470773
    18  C    0.372649
    19  H   -0.075548
    20  H   -0.104084
 Sum of ESP charges =   0.00000

 Summary of Natural Population Analysis:

                                       Natural Population
                Natural  -----------------------------------------------
    Atom  No    Charge         Core      Valence    Rydberg      Total
 -----------------------------------------------------------------------
      C    1   -0.35190      1.99935     4.33824    0.01431     6.35190
      H    2    0.19168      0.00000     0.80670    0.00162     0.80832
      H    3    0.19168      0.00000     0.80670    0.00162     0.80832
      H    4    0.15928      0.00000     0.83705    0.00367     0.84072
      C    5   -0.16901      1.99929     4.15078    0.01894     6.16901
      H    6    0.15956      0.00000     0.83711    0.00333     0.84044
      H    7    0.19111      0.00000     0.80709    0.00180     0.80889
      C    8   -0.39426      1.99929     4.38000    0.01497     6.39426
      H    9    0.19049      0.00000     0.80743    0.00207     0.80951
      H   10    0.19985      0.00000     0.79847    0.00168     0.80015
      C   11   -0.39426      1.99929     4.38000    0.01497     6.39426
      H   12    0.19985      0.00000     0.79847    0.00168     0.80015
      H   13    0.19049      0.00000     0.80743    0.00207     0.80951
      C   14   -0.16901      1.99929     4.15078    0.01894     6.16901
      H   15    0.19111      0.00000     0.80709    0.00180     0.80889
      H   16    0.15956      0.00000     0.83711    0.00333     0.84044
      N   17   -0.56813      1.99942     5.53710    0.03161     7.56813
      C   18   -0.37959      1.99928     4.36559    0.01472     6.37959
      H   19    0.19937      0.00000     0.79902    0.00160     0.80063
      H   20    0.20212      0.00000     0.79563    0.00225     0.79788
 =======================================================================
   * Total *    0.00000     13.99523    41.84781    0.15696    56.00000

 ******    1 imaginary frequencies (negative Signs) ******

                      1                      2                      3
                     A"                     A'                     A'
 Frequencies --    -96.5772               168.0823               219.8241
 Red. masses --      1.6993                 2.2625                 1.6162
 Frc consts  --      0.0093                 0.0377                 0.0460
 IR Inten    --      0.0314                 1.6776                 0.6608

                      4                      5                      6
                     A"                     A'                     A"
 Frequencies --    250.5659               344.9898               369.4046
 Red. masses --      1.0799                 2.1711                 2.2251
 Frc consts  --      0.0399                 0.1522                 0.1789
 IR Inten    --      0.2222                 5.4048                 0.1773

                      7                      8                      9
                     A'                     A"                     A'
 Frequencies --    434.2563               503.2802               599.5537
 Red. masses --      3.0447                 4.7917                 2.0987
 Frc consts  --      0.3383                 0.7151                 0.4445
 IR Inten    --      0.0526                 1.1241                 0.4397

                     10                     11                     12
                     A'                     A"                     A'
 Frequencies --    798.7360               802.8205               848.6775
 Red. masses --      2.2803                 1.2065                 2.3633
 Frc consts  --      0.8571                 0.4582                 1.0029
 IR Inten    --     10.8792                 0.6567                 1.6787

                     13                     14                     15
                     A'                     A"                     A"
 Frequencies --    881.7634               908.0617               974.4994
 Red. masses --      1.7751                 2.4672                 1.3629
 Frc consts  --      0.8132                 1.1986                 0.7626
 IR Inten    --     10.6037                 0.0792                 0.0007

                     16                     17                     18
                     A'                     A"                     A'
 Frequencies --    982.3021              1046.7262              1059.4558
 Red. masses --      2.4527                 1.6622                 2.4247
 Frc consts  --      1.3944                 1.0730                 1.6035
 IR Inten    --      0.9641                15.7223                 6.9826

                     19                     20                     21
                     A"                     A'                     A'
 Frequencies --   1103.4887              1121.4992              1161.6862
 Red. masses --      2.8737                 1.7361                 1.8129
 Frc consts  --      2.0617                 1.2865                 1.4415
 IR Inten    --      4.7630                24.6018                22.8341

                     22                     23                     24
                     A'                     A"                     A"
 Frequencies --   1185.1527              1185.9849              1201.1828
 Red. masses --      2.4060                 1.2976                 1.2131
 Frc consts  --      1.9911                 1.0754                 1.0313
 IR Inten    --     20.1445                 1.2211                 2.2329

                     25                     26                     27
                     A"                     A"                     A'
 Frequencies --   1265.7058              1294.5029              1303.2644
 Red. masses --      1.2208                 1.7880                 1.1374
 Frc consts  --      1.1523                 1.7653                 1.1383
 IR Inten    --      0.3129                18.5210                 1.9288

                     28                     29                     30
                     A'                     A"                     A'
 Frequencies --   1329.0451              1354.7529              1363.7779
 Red. masses --      1.2922                 1.3182                 1.5236
 Frc consts  --      1.3448                 1.4255                 1.6696
 IR Inten    --     12.3230                 0.5958                 0.7276

                     31                     32                     33
                     A"                     A"                     A'
 Frequencies --   1372.6556              1395.4570              1407.9993
 Red. masses --      1.2881                 1.3931                 1.4385
 Frc consts  --      1.4299                 1.5983                 1.6802
 IR Inten    --      2.6260                 0.2023                19.1968

                     34                     35                     36
                     A'                     A'                     A"
 Frequencies --   1457.4336              1485.8149              1488.0645
 Red. masses --      1.1963                 1.0460                 1.0739
 Frc consts  --      1.4972                 1.3605                 1.4010
 IR Inten    --      0.2331                16.9248                 3.4295

                     37                     38                     39
                     A'                     A'                     A"
 Frequencies --   1488.4287              1500.3832              1502.4926
 Red. masses --      1.0818                 1.0943                 1.0764
 Frc consts  --      1.4120                 1.4515                 1.4317
 IR Inten    --      3.9681                 6.4901                 0.4120

                     40                     41                     42
                     A"                     A'                     A"
 Frequencies --   1510.8513              1522.2292              2870.8503
 Red. masses --      1.0639                 1.0959                 1.0760
 Frc consts  --      1.4309                 1.4962                 5.2252
 IR Inten    --      5.5057                 4.9547                38.7634

                     43                     44                     45
                     A'                     A'                     A'
 Frequencies --   2876.6961              2902.1642              3024.4709
 Red. masses --      1.0726                 1.0639                 1.0637
 Frc consts  --      5.2299                 5.2796                 5.7329
 IR Inten    --     91.7659               186.3829                35.5098

                     46                     47                     48
                     A"                     A'                     A"
 Frequencies --   3026.3413              3035.3146              3044.6579
 Red. masses --      1.0621                 1.0665                 1.0901
 Frc consts  --      5.7315                 5.7894                 5.9536
 IR Inten    --     35.9593                29.0079                11.8353

                     49                     50                     51
                     A'                     A'                     A'
 Frequencies --   3045.1100              3048.5054              3064.9965
 Red. masses --      1.0838                 1.0710                 1.0939
 Frc consts  --      5.9214                 5.8642                 6.0544
 IR Inten    --     26.2938                57.4705                16.8184

                     52                     53                     54
                     A"                     A'                     A"
 Frequencies --   3066.7333              3081.1594              3090.8226
 Red. masses --      1.0981                 1.1025                 1.1034
 Frc consts  --      6.0846                 6.1670                 6.2103
 IR Inten    --     63.5591                75.7402                34.7136

 - Thermochemistry -
 -------------------
 Temperature   298.150 Kelvin.  Pressure   1.00000 Atm.
 Atom     1 has atomic number  6 and mass  12.00000

 Molecular mass:    99.10480 amu.
 Principal axes and moments of inertia in atomic units:
                           1         2         3
     Eigenvalues --   426.10912 773.894971059.01485
           X            0.10618   0.00000   0.99435
           Y            0.99435   0.00000  -0.10618
           Z            0.00000   1.00000   0.00000
 This molecule is an asymmetric top.
 Rotational symmetry number  1.
 Rotational temperatures (Kelvin)      0.20327     0.11192     0.08179
 Rotational constants (GHZ):           4.23540     2.33202     1.70417
    1 imaginary frequencies ignored.
 Zero-point vibrational energy     486716.7 (Joules/Mol)
                                  116.32808 (Kcal/Mol)
 Warning -- explicit consideration of   8 degrees of freedom as
           vibrations may cause significant error
 Vibrational temperatures:    241.83   316.28   360.51   496.36   531.49
          (Kelvin)            624.80   724.11   862.62  1149.20  1155.08
                             1221.06  1268.66  1306.50  1402.09  1413.31
                             1506.00  1524.32  1587.67  1613.59  1671.41
                             1705.17  1706.37  1728.23  1821.07  1862.50
                             1875.10  1912.20  1949.18  1962.17  1974.94
                             2007.75  2025.79  2096.92  2137.75  2140.99
                             2141.51  2158.71  2161.75  2173.78  2190.15
                             4130.51  4138.92  4175.56  4351.53  4354.22
                             4367.14  4380.58  4381.23  4386.11  4409.84
                             4412.34  4433.10  4447.00

 Zero-point correction=                           0.185381 (Hartree/Particle)
 Thermal correction to Energy=                    0.191926
 Thermal correction to Enthalpy=                  0.192870
 Thermal correction to Gibbs Free Energy=         0.155227
 Sum of electronic and zero-point Energies=           -291.100817
 Sum of electronic and thermal Energies=              -291.094272
 Sum of electronic and thermal Enthalpies=            -291.093328
 Sum of electronic and thermal Free Energies=         -291.130971

                     E (Thermal)             CV                S
                      KCal/Mol        Cal/Mol-Kelvin    Cal/Mol-Kelvin
 Total                  120.435             25.729             79.227
 Electronic               0.000              0.000              0.000
 Translational            0.889              2.981             39.691
 Rotational               0.889              2.981             27.348
 Vibrational            118.658             19.767             12.187
 Vibration     1          0.625              1.882              2.457
 Vibration     2          0.647              1.811              1.961
 Vibration     3          0.663              1.762              1.727
 Vibration     4          0.723              1.585              1.189
 Vibration     5          0.742              1.535              1.082
 Vibration     6          0.795              1.396              0.845
 Vibration     7          0.859              1.243              0.650
 Vibration     8          0.958              1.033              0.450

 Optimization completed.
    -- Stationary point found.
 Normal termination of Gaussian 09 at Tue Nov  2 15:48:20 2021.
