 Gaussian 09, Revision D.01,
 Gaussian 09:  ES64L-G09RevD.01 24-Apr-2013

 ----------------------------------------------------------------------
 # opt freq b3lyp/6-311+g(d,p) geom=connectivity pop=(hirshfeld,chelpg,
 mbs,npa)
 ----------------------------------------------------------------------

 -------------------
 Title Card Required
 -------------------
 Symbolic Z-matrix:
 Charge =  0 Multiplicity = 1

 SCF Done:  E(RB3LYP) =  -878.881375720     A.U. after   16 cycles
 SCF Done:  E(RB3LYP) =  -878.904047204     A.U. after   15 cycles
 SCF Done:  E(RB3LYP) =  -878.914384381     A.U. after   14 cycles
 SCF Done:  E(RB3LYP) =  -878.919699435     A.U. after   14 cycles
 SCF Done:  E(RB3LYP) =  -878.922780767     A.U. after   14 cycles
 SCF Done:  E(RB3LYP) =  -878.924369260     A.U. after   12 cycles
 SCF Done:  E(RB3LYP) =  -878.924667823     A.U. after   12 cycles
 SCF Done:  E(RB3LYP) =  -878.924737696     A.U. after   12 cycles
 SCF Done:  E(RB3LYP) =  -878.924766909     A.U. after   11 cycles
 SCF Done:  E(RB3LYP) =  -878.924785930     A.U. after   11 cycles
 SCF Done:  E(RB3LYP) =  -878.924796671     A.U. after   11 cycles
 SCF Done:  E(RB3LYP) =  -878.924804092     A.U. after   11 cycles
 SCF Done:  E(RB3LYP) =  -878.924804711     A.U. after    9 cycles
 Optimization completed.
    -- Stationary point found.
 Normal termination of Gaussian 09 at Mon Nov  1 16:58:56 2021.

 ----------------------------------------------------------------------
 #N Geom=AllCheck Guess=TCheck SCRF=Check GenChk RB3LYP/6-311+G(d,p) Fr
 eq
 ----------------------------------------------------------------------

 Structure from the checkpoint file:  "Chart3_2.chk"
 -------------------
 Title Card Required
 -------------------
 Charge =  0 Multiplicity = 1

                         Standard orientation:
 ---------------------------------------------------------------------
 Center     Atomic      Atomic             Coordinates (Angstroms)
 Number     Number       Type             X           Y           Z
 ---------------------------------------------------------------------
      1          6           0        0.176997    2.313739    0.000114
      2          6           0       -0.613415    1.161392   -0.000010
      3          6           0       -0.004195   -0.114468   -0.000096
      4          6           0        1.378005   -0.257561   -0.000061
      5          6           0        2.161494    0.886964    0.000044
      6          6           0        1.557889    2.157610    0.000127
      7          1           0        3.239920    0.794189    0.000094
      8          6           0       -2.219854   -0.270056   -0.000155
      9          7           0       -1.993708    1.019193   -0.000336
     10          6           0       -3.563642   -0.916339    0.000234
     11          1           0       -3.702535   -1.546317   -0.883781
     12          1           0       -3.703279   -1.544001    0.885774
     13          1           0       -4.327026   -0.140173   -0.001101
     14          1           0       -0.283631    3.293740    0.000069
     15          7           0       -1.051501   -1.010561   -0.000035
     16          1           0       -0.972071   -2.015307    0.000391
     17          1           0        2.197193    3.032551    0.000189
     18         17           0        2.095777   -1.864870   -0.000013
 ---------------------------------------------------------------------

 SCF Done:  E(RB3LYP) =  -878.924804711     A.U. after    2 cycles

 The electronic state is 1-A.
 Alpha  occ. eigenvalues -- -101.56453 -14.38017 -14.30644 -10.25803 -10.24504
 Alpha  occ. eigenvalues --  -10.22684 -10.20766 -10.19265 -10.18864 -10.18315
 Alpha  occ. eigenvalues --  -10.18162  -9.47899  -7.24348  -7.23374  -7.23370
 Alpha  occ. eigenvalues --   -1.03461  -0.90117  -0.88970  -0.83922  -0.78526
 Alpha  occ. eigenvalues --   -0.74230  -0.72340  -0.63561  -0.62044  -0.61096
 Alpha  occ. eigenvalues --   -0.55097  -0.51968  -0.48773  -0.47566  -0.46113
 Alpha  occ. eigenvalues --   -0.45101  -0.42801  -0.42324  -0.41942  -0.38551
 Alpha  occ. eigenvalues --   -0.37855  -0.37810  -0.34187  -0.33091  -0.30877
 Alpha  occ. eigenvalues --   -0.28764  -0.24389  -0.23778
 Alpha virt. eigenvalues --   -0.03605  -0.01396  -0.00398   0.00526   0.01138
 Alpha virt. eigenvalues --    0.02315   0.02651   0.03464   0.03731   0.04539
 Alpha virt. eigenvalues --    0.05347   0.05793   0.06233   0.06531   0.07685

 Mulliken charges:
               1
     1  C   -0.587739
     2  C    0.301852
     3  C   -0.561963
     4  C    0.614308
     5  C   -0.502263
     6  C   -0.308388
     7  H    0.139357
     8  C    0.230178
     9  N   -0.123300
    10  C   -0.394879
    11  H    0.155402
    12  H    0.155512
    13  H    0.180187
    14  H    0.127484
    15  N   -0.122798
    16  H    0.299426
    17  H    0.130812
    18  Cl   0.266813
 Sum of Mulliken charges =   0.00000

 Dipole moment (field-independent basis, Debye):
    X=             -0.9059    Y=             -2.0172    Z=              0.0013  Tot=              2.2113
 Quadrupole moment (field-independent basis, Debye-Ang):
   XX=            -66.9987   YY=            -66.3718   ZZ=            -74.3514
   XY=             10.9621   XZ=             -0.0024   YZ=             -0.0010

  Exact polarizability: 155.811   8.015 137.510  -0.001   0.000  66.803
 Approx polarizability: 232.138   8.450 228.826   0.001   0.002 102.902

 ESP charges:
               1
     1  C   -0.259640
     2  C    0.425869
     3  C    0.123005
     4  C    0.033578
     5  C   -0.139810
     6  C   -0.147181
     7  H    0.124662
     8  C    0.596604
     9  N   -0.710756
    10  C   -0.177394
    11  H    0.051102
    12  H    0.051089
    13  H    0.076260
    14  H    0.157896
    15  N   -0.547834
    16  H    0.349840
    17  H    0.123227
    18  Cl  -0.130517
 Sum of ESP charges =   0.00000

 Summary of Natural Population Analysis:

                                       Natural Population
                Natural  -----------------------------------------------
    Atom  No    Charge         Core      Valence    Rydberg      Total
 -----------------------------------------------------------------------
      C    1   -0.19730      1.99907     4.18044    0.01779     6.19730
      C    2    0.12369      1.99892     3.85110    0.02630     5.87631
      C    3    0.09521      1.99876     3.88536    0.02067     5.90479
      C    4   -0.06055      1.99845     4.04022    0.02187     6.06055
      C    5   -0.23054      1.99900     4.21201    0.01952     6.23054
      C    6   -0.20803      1.99919     4.19105    0.01778     6.20803
      H    7    0.22203      0.00000     0.77636    0.00161     0.77797
      C    8    0.42211      1.99931     3.54750    0.03107     5.57789
      N    9   -0.50028      1.99934     5.48070    0.02023     7.50028
      C   10   -0.62179      1.99928     4.61357    0.00894     6.62179
      H   11    0.21776      0.00000     0.78072    0.00152     0.78224
      H   12    0.21781      0.00000     0.78067    0.00152     0.78219
      H   13    0.23938      0.00000     0.75895    0.00167     0.76062
      H   14    0.22059      0.00000     0.77748    0.00193     0.77941
      N   15   -0.56032      1.99924     5.54714    0.01394     7.56032
      H   16    0.41967      0.00000     0.57793    0.00239     0.58033
      H   17    0.21050      0.00000     0.78799    0.00151     0.78950
     Cl   18   -0.00996      9.99964     6.99005    0.02027    17.00996
 =======================================================================
   * Total *    0.00000     29.99021    55.77925    0.23054    86.00000

                      1                      2                      3
                      A                      A                      A
 Frequencies --     77.4062               132.6042               154.7477
 Red. masses --      1.0617                 3.5622                 6.1825
 Frc consts  --      0.0037                 0.0369                 0.0872
 IR Inten    --      0.3880                 2.4115                 3.9406

                      4                      5                      6
                      A                      A                      A
 Frequencies --    164.8735               274.3810               309.7414
 Red. masses --      6.6989                 4.9633                 3.4270
 Frc consts  --      0.1073                 0.2202                 0.1937
 IR Inten    --      2.5508                 3.2996                 1.5963

                      7                      8                      9
                      A                      A                      A
 Frequencies --    314.7935               393.2118               456.8276
 Red. masses --      4.4350                10.4502                 1.2480
 Frc consts  --      0.2589                 0.9520                 0.1534
 IR Inten    --      0.0909                 4.1298                82.2242

                     10                     11                     12
                      A                      A                      A
 Frequencies --    508.8682               521.4777               539.4936
 Red. masses --      4.5077                 4.7967                 5.3123
 Frc consts  --      0.6877                 0.7685                 0.9110
 IR Inten    --      5.7666                 0.0111                 7.7075

                     13                     14                     15
                      A                      A                      A
 Frequencies --    587.0346               634.7393               677.1650
 Red. masses --      3.5550                 6.5215                 3.6047
 Frc consts  --      0.7218                 1.5481                 0.9739
 IR Inten    --      5.0539                 0.3306                 1.9236

                     16                     17                     18
                      A                      A                      A
 Frequencies --    732.3614               741.1372               790.3041
 Red. masses --      5.8640                 2.0325                 2.1724
 Frc consts  --      1.8531                 0.6578                 0.7994
 IR Inten    --      7.5159                24.6328                40.2734

                     19                     20                     21
                      A                      A                      A
 Frequencies --    875.6992               901.3971               947.7150
 Red. masses --      4.2792                 1.3961                 4.8061
 Frc consts  --      1.9334                 0.6683                 2.5433
 IR Inten    --      1.0365                 0.2366                58.3968

                     22                     23                     24
                      A                      A                      A
 Frequencies --    972.5834               981.8292              1033.2513
 Red. masses --      1.2942                 2.5395                 2.8929
 Frc consts  --      0.7213                 1.4423                 1.8197
 IR Inten    --      0.8532                 0.0240                 2.7436

                     25                     26                     27
                      A                      A                      A
 Frequencies --   1061.3061              1068.8374              1160.6495
 Red. masses --      1.5207                 1.9150                 1.4592
 Frc consts  --      1.0092                 1.2889                 1.1581
 IR Inten    --      1.2604                 6.2187                11.7947

                     28                     29                     30
                      A                      A                      A
 Frequencies --   1208.2894              1217.0849              1291.1013
 Red. masses --      1.9757                 1.6841                 4.0802
 Frc consts  --      1.6995                 1.4698                 4.0073
 IR Inten    --     12.8025                16.8740                55.5123

                     31                     32                     33
                      A                      A                      A
 Frequencies --   1304.1853              1374.5527              1413.7719
 Red. masses --      3.1656                 3.1394                 1.7248
 Frc consts  --      3.1724                 3.4947                 2.0312
 IR Inten    --     10.5457                25.7809                28.3728

                     34                     35                     36
                      A                      A                      A
 Frequencies --   1416.8258              1446.6971              1483.4578
 Red. masses --      1.8718                 3.2171                 1.0420
 Frc consts  --      2.2138                 3.9671                 1.3511
 IR Inten    --     55.6865                48.6296                 9.7482

                     37                     38                     39
                      A                      A                      A
 Frequencies --   1487.3768              1521.4806              1581.6865
 Red. masses --      1.1946                 3.1384                 6.4547
 Frc consts  --      1.5572                 4.2805                 9.5141
 IR Inten    --      4.1319                 7.1619                82.1501

                     40                     41                     42
                      A                      A                      A
 Frequencies --   1608.9315              1668.1514              3029.7459
 Red. masses --      6.7138                 7.5634                 1.0396
 Frc consts  --     10.2399                12.4004                 5.6223
 IR Inten    --     20.4753                16.3193                23.7829

                     43                     44                     45
                      A                      A                      A
 Frequencies --   3078.1870              3143.2693              3177.5428
 Red. masses --      1.1006                 1.0979                 1.0874
 Frc consts  --      6.1441                 6.3908                 6.4690
 IR Inten    --     11.5903                 2.7595                 5.7408

                     46                     47                     48
                      A                      A                      A
 Frequencies --   3198.6619              3204.0665              3650.7073
 Red. masses --      1.0918                 1.0955                 1.0809
 Frc consts  --      6.5813                 6.6264                 8.4873
 IR Inten    --      3.6322                 4.8573                67.9533

 - Thermochemistry -
 -------------------
 Temperature   298.150 Kelvin.  Pressure   1.00000 Atm.
 Atom     1 has atomic number  6 and mass  12.00000

 Molecular mass:   166.02978 amu.
 Principal axes and moments of inertia in atomic units:
                           1         2         3
     Eigenvalues --  1203.303992198.144843390.17912
           X            0.99569   0.09271  -0.00001
           Y           -0.09271   0.99569   0.00000
           Z            0.00000   0.00000   1.00000
 This molecule is an asymmetric top.
 Rotational symmetry number  1.
 Warning -- assumption of classical behavior for rotation
           may cause significant error
 Rotational temperatures (Kelvin)      0.07198     0.03940     0.02555
 Rotational constants (GHZ):           1.49982     0.82103     0.53234
 Zero-point vibrational energy     356009.9 (Joules/Mol)
                                   85.08841 (Kcal/Mol)
 Warning -- explicit consideration of  13 degrees of freedom as
           vibrations may cause significant error
 Vibrational temperatures:    111.37   190.79   222.65   237.22   394.77
          (Kelvin)            445.65   452.92   565.74   657.27   732.15
                              750.29   776.21   844.61   913.25   974.29
                             1053.70  1066.33  1137.07  1259.93  1296.91
                             1363.55  1399.33  1412.63  1486.62  1526.98
                             1537.82  1669.91  1738.46  1751.11  1857.60
                             1876.43  1977.67  2034.10  2038.49  2081.47
                             2134.36  2140.00  2189.07  2275.69  2314.89
                             2400.09  4359.12  4428.82  4522.46  4571.77
                             4602.16  4609.93  5252.55

 Zero-point correction=                           0.135597 (Hartree/Particle)
 Thermal correction to Energy=                    0.144760
 Thermal correction to Enthalpy=                  0.145704
 Thermal correction to Gibbs Free Energy=         0.100706
 Sum of electronic and zero-point Energies=           -878.789208
 Sum of electronic and thermal Energies=              -878.780045
 Sum of electronic and thermal Enthalpies=            -878.779101
 Sum of electronic and thermal Free Energies=         -878.824099

                     E (Thermal)             CV                S
                      KCal/Mol        Cal/Mol-Kelvin    Cal/Mol-Kelvin
 Total                   90.838             35.104             94.707
 Electronic               0.000              0.000              0.000
 Translational            0.889              2.981             41.229
 Rotational               0.889              2.981             30.573
 Vibrational             89.061             29.143             22.905
 Vibration     1          0.599              1.964              3.956
 Vibration     2          0.613              1.921              2.908
 Vibration     3          0.620              1.897              2.613
 Vibration     4          0.623              1.886              2.493
 Vibration     5          0.677              1.721              1.568
 Vibration     6          0.699              1.655              1.364
 Vibration     7          0.702              1.645              1.337
 Vibration     8          0.760              1.485              0.988
 Vibration     9          0.815              1.346              0.775
 Vibration    10          0.864              1.230              0.636
 Vibration    11          0.876              1.202              0.607
 Vibration    12          0.895              1.163              0.566
 Vibration    13          0.944              1.059              0.473

 Normal termination of Gaussian 09 at Mon Nov  1 17:01:19 2021.
