 Gaussian 09, Revision D.01,
 Gaussian 09:  ES64L-G09RevD.01 24-Apr-2013

 ----------------------------------------------------------------------
 # opt freq b3lyp/6-311+g(d,p) geom=connectivity pop=(hirshfeld,chelpg,
 mbs,npa)
 ----------------------------------------------------------------------

 --------
 Chart2_2
 --------
 Symbolic Z-matrix:
 Charge =  0 Multiplicity = 1

 SCF Done:  E(RB3LYP) =  -330.614310091     A.U. after   12 cycles
 SCF Done:  E(RB3LYP) =  -330.620097556     A.U. after   10 cycles
 SCF Done:  E(RB3LYP) =  -330.621705224     A.U. after   10 cycles
 SCF Done:  E(RB3LYP) =  -330.621846761     A.U. after   10 cycles
 SCF Done:  E(RB3LYP) =  -330.621915621     A.U. after    9 cycles
 SCF Done:  E(RB3LYP) =  -330.621919317     A.U. after    8 cycles
 SCF Done:  E(RB3LYP) =  -330.621919972     A.U. after    7 cycles
 SCF Done:  E(RB3LYP) =  -330.621919917     A.U. after    7 cycles
 SCF Done:  E(RB3LYP) =  -330.621919884     A.U. after    6 cycles
 Optimization completed.
    -- Stationary point found.
 Normal termination of Gaussian 09 at Wed Nov 17 16:14:13 2021.

 ----------------------------------------------------------------------
 #N Geom=AllCheck Guess=TCheck SCRF=Check GenChk RB3LYP/6-311+G(d,p) Fr
 eq
 ----------------------------------------------------------------------

 Structure from the checkpoint file:  "Chart2_2.chk"
 --------
 Chart2_2
 --------
 Charge =  0 Multiplicity = 1

                         Standard orientation:
 ---------------------------------------------------------------------
 Center     Atomic      Atomic             Coordinates (Angstroms)
 Number     Number       Type             X           Y           Z
 ---------------------------------------------------------------------
      1          6           0       -1.776168   -1.061608   -0.378740
      2          6           0       -0.381045   -1.314449    0.196729
      3          6           0        0.060779    1.051476    0.381675
      4          6           0       -1.318417    1.401940   -0.183563
      5          6           0       -2.330552    0.285864    0.097671
      6          1           0       -0.456969   -1.444162    1.296139
      7          1           0        0.026053   -2.246597   -0.205790
      8          1           0       -1.711194   -1.067795   -1.472436
      9          1           0       -2.442691   -1.879989   -0.087331
     10          1           0        0.008486    1.025841    1.490138
     11          1           0        0.773468    1.833971    0.114649
     12          1           0       -1.656437    2.349341    0.249007
     13          1           0       -1.226606    1.552708   -1.264957
     14          1           0       -2.526157    0.236594    1.176763
     15          1           0       -3.288490    0.502126   -0.385745
     16          7           0        0.543459   -0.229282   -0.139387
     17          6           0        1.910469   -0.536681    0.285098
     18          6           0        2.973018    0.354272   -0.358596
     19          1           0        2.109159   -1.574767    0.001910
     20          1           0        2.004133   -0.490467    1.387972
     21          1           0        3.970764    0.002543   -0.080905
     22          1           0        2.887385    0.325166   -1.447754
     23          1           0        2.896383    1.395569   -0.037584
 ---------------------------------------------------------------------

 SCF Done:  E(RB3LYP) =  -330.621919884     A.U. after    1 cycles

 The electronic state is 1-A.
 Alpha  occ. eigenvalues --  -14.30031 -10.19064 -10.18806 -10.18749 -10.16333
 Alpha  occ. eigenvalues --  -10.16263 -10.16242 -10.15744  -0.92520  -0.79931
 Alpha  occ. eigenvalues --   -0.75184  -0.73864  -0.64860  -0.62380  -0.59054
 Alpha  occ. eigenvalues --   -0.55024  -0.49410  -0.46604  -0.45170  -0.44749
 Alpha  occ. eigenvalues --   -0.42551  -0.41768  -0.40750  -0.38428  -0.37026
 Alpha  occ. eigenvalues --   -0.36170  -0.34718  -0.34435  -0.32586  -0.31407
 Alpha  occ. eigenvalues --   -0.31166  -0.21682
 Alpha virt. eigenvalues --    0.00525   0.01566   0.01925   0.02188   0.03731
 Alpha virt. eigenvalues --    0.03920   0.04756   0.05476   0.05896   0.06945
 Alpha virt. eigenvalues --    0.07528   0.08122   0.08433   0.08828   0.09436

 Mulliken charges:
               1
     1  C   -0.382222
     2  C   -0.213350
     3  C   -0.339980
     4  C   -0.333980
     5  C   -0.238358
     6  H    0.124198
     7  H    0.135415
     8  H    0.149932
     9  H    0.145150
    10  H    0.121518
    11  H    0.141554
    12  H    0.143507
    13  H    0.151229
    14  H    0.140196
    15  H    0.142897
    16  N    0.098056
    17  C   -0.144680
    18  C   -0.497717
    19  H    0.125317
    20  H    0.120212
    21  H    0.137539
    22  H    0.147553
    23  H    0.126014
 Sum of Mulliken charges =   0.00000

 Dipole moment (field-independent basis, Debye):
    X=             -0.0763    Y=             -0.0501    Z=              0.4333  Tot=              0.4428
 Quadrupole moment (field-independent basis, Debye-Ang):
   XX=            -52.1437   YY=            -51.8852   ZZ=            -54.9939
   XY=             -0.2604   XZ=              0.4009   YZ=              0.2206

  Exact polarizability: 105.062   0.202  90.333   0.569  -0.586  83.337
 Approx polarizability: 126.079  -0.112 124.713   0.025  -0.203 128.209

 ESP charges:
               1
     1  C   -0.001863
     2  C    0.097984
     3  C    0.164212
     4  C   -0.057478
     5  C    0.125496
     6  H   -0.004796
     7  H    0.041190
     8  H    0.010003
     9  H   -0.013639
    10  H   -0.001714
    11  H    0.027063
    12  H   -0.005893
    13  H    0.024135
    14  H   -0.025879
    15  H   -0.030162
    16  N   -0.545434
    17  C    0.279032
    18  C   -0.156454
    19  H    0.009680
    20  H   -0.048227
    21  H    0.023226
    22  H    0.042364
    23  H    0.047156
 Sum of ESP charges =   0.00000

 Summary of Natural Population Analysis:

                                       Natural Population
                Natural  -----------------------------------------------
    Atom  No    Charge         Core      Valence    Rydberg      Total
 -----------------------------------------------------------------------
      C    1   -0.39069      1.99928     4.37674    0.01467     6.39069
      C    2   -0.16728      1.99927     4.14958    0.01843     6.16728
      C    3   -0.17263      1.99926     4.15451    0.01886     6.17263
      C    4   -0.39022      1.99928     4.37634    0.01461     6.39022
      C    5   -0.38360      1.99929     4.37012    0.01419     6.38360
      H    6    0.15914      0.00000     0.83748    0.00338     0.84086
      H    7    0.19391      0.00000     0.80422    0.00187     0.80609
      H    8    0.19709      0.00000     0.80024    0.00267     0.80291
      H    9    0.19960      0.00000     0.79862    0.00178     0.80040
      H   10    0.15910      0.00000     0.83756    0.00334     0.84090
      H   11    0.19605      0.00000     0.80193    0.00202     0.80395
      H   12    0.19948      0.00000     0.79876    0.00176     0.80052
      H   13    0.19714      0.00000     0.80020    0.00266     0.80286
      H   14    0.18845      0.00000     0.80931    0.00223     0.81155
      H   15    0.20070      0.00000     0.79784    0.00147     0.79930
      N   16   -0.58339      1.99940     5.54318    0.04082     7.58339
      C   17   -0.16826      1.99930     4.15135    0.01761     6.16826
      C   18   -0.58186      1.99936     4.57406    0.00843     6.58186
      H   19    0.18871      0.00000     0.80932    0.00197     0.81129
      H   20    0.16103      0.00000     0.83574    0.00324     0.83897
      H   21    0.20119      0.00000     0.79740    0.00141     0.79881
      H   22    0.20333      0.00000     0.79408    0.00259     0.79667
      H   23    0.19301      0.00000     0.80532    0.00167     0.80699
 =======================================================================
   * Total *    0.00000     15.99444    47.82391    0.18165    64.00000

                      1                      2                      3
                      A                      A                      A
 Frequencies --     71.4410               126.3105               218.0513
 Red. masses --      2.0726                 1.9924                 1.4789
 Frc consts  --      0.0062                 0.0187                 0.0414
 IR Inten    --      0.1314                 0.8658                 0.0647

                      4                      5                      6
                      A                      A                      A
 Frequencies --    241.9813               258.8280               323.2946
 Red. masses --      1.7988                 1.8869                 1.8332
 Frc consts  --      0.0621                 0.0745                 0.1129
 IR Inten    --      0.6464                 0.3386                 1.6994

                      7                      8                      9
                      A                      A                      A
 Frequencies --    386.7944               414.2611               464.4887
 Red. masses --      2.8447                 1.9894                 2.9195
 Frc consts  --      0.2508                 0.2012                 0.3711
 IR Inten    --      0.5005                 3.2183                 0.7664

                     10                     11                     12
                      A                      A                      A
 Frequencies --    469.2704               555.1529               764.5820
 Red. masses --      2.8519                 1.5919                 2.6447
 Frc consts  --      0.3700                 0.2891                 0.9109
 IR Inten    --      0.7601                 0.5055                12.0299

                     13                     14                     15
                      A                      A                      A
 Frequencies --    806.3505               819.7547               852.3200
 Red. masses --      1.1990                 1.4371                 2.8286
 Frc consts  --      0.4593                 0.5690                 1.2107
 IR Inten    --      0.9491                 0.2452                 1.9153

                     16                     17                     18
                      A                      A                      A
 Frequencies --    872.2728               910.7532               941.9565
 Red. masses --      1.3993                 2.3438                 2.1536
 Frc consts  --      0.6273                 1.1454                 1.1259
 IR Inten    --      2.7636                 1.0513                 7.2224

                     19                     20                     21
                      A                      A                      A
 Frequencies --    978.7446              1027.3000              1051.3802
 Red. masses --      1.2949                 2.1970                 2.0848
 Frc consts  --      0.7308                 1.3661                 1.3578
 IR Inten    --      1.1362                 6.7212                 9.2649

                     22                     23                     24
                      A                      A                      A
 Frequencies --   1059.3012              1094.6552              1108.4605
 Red. masses --      1.7396                 2.0105                 2.3414
 Frc consts  --      1.1501                 1.4194                 1.6950
 IR Inten    --      5.9752                 4.5313                24.3054

                     25                     26                     27
                      A                      A                      A
 Frequencies --   1154.7162              1167.6339              1177.5367
 Red. masses --      1.8779                 1.8672                 1.2303
 Frc consts  --      1.4752                 1.4999                 1.0051
 IR Inten    --     13.6057                24.4118                 3.7572

                     28                     29                     30
                      A                      A                      A
 Frequencies --   1180.5823              1259.9425              1287.5656
 Red. masses --      2.1488                 1.9075                 1.2500
 Frc consts  --      1.7646                 1.7841                 1.2209
 IR Inten    --     19.1385                12.9098                 7.5695

                     31                     32                     33
                      A                      A                      A
 Frequencies --   1299.5902              1318.6949              1335.1003
 Red. masses --      1.1574                 1.1980                 1.3604
 Frc consts  --      1.1517                 1.2274                 1.4287
 IR Inten    --      5.6342                 2.9468                22.3082

                     34                     35                     36
                      A                      A                      A
 Frequencies --   1358.4692              1375.3958              1380.5699
 Red. masses --      1.2943                 1.3405                 1.4660
 Frc consts  --      1.4073                 1.4941                 1.6463
 IR Inten    --      2.8117                 6.2551                14.5209

                     37                     38                     39
                      A                      A                      A
 Frequencies --   1383.7640              1398.2970              1413.9062
 Red. masses --      1.4497                 1.3182                 1.3297
 Frc consts  --      1.6355                 1.5186                 1.5662
 IR Inten    --      1.6499                 2.2062                15.8343

                     40                     41                     42
                      A                      A                      A
 Frequencies --   1429.6608              1478.2578              1486.8359
 Red. masses --      1.4414                 1.0924                 1.0846
 Frc consts  --      1.7358                 1.4065                 1.4126
 IR Inten    --      6.2122                 2.7643                 7.1049

                     43                     44                     45
                      A                      A                      A
 Frequencies --   1487.4034              1493.4735              1493.9302
 Red. masses --      1.0745                 1.0634                 1.0807
 Frc consts  --      1.4006                 1.3974                 1.4210
 IR Inten    --      2.6247                 3.8979                 9.2137

                     46                     47                     48
                      A                      A                      A
 Frequencies --   1499.5946              1505.8094              1517.5616
 Red. masses --      1.0694                 1.0820                 1.0916
 Frc consts  --      1.4169                 1.4455                 1.4811
 IR Inten    --      1.9742                 0.8603                 9.0522

                     49                     50                     51
                      A                      A                      A
 Frequencies --   2863.5352              2871.2148              2892.3758
 Red. masses --      1.0739                 1.0730                 1.0732
 Frc consts  --      5.1884                 5.2115                 5.2898
 IR Inten    --     32.3454                74.2955               175.6257

                     52                     53                     54
                      A                      A                      A
 Frequencies --   3003.0437              3019.6204              3019.9447
 Red. masses --      1.0675                 1.0622                 1.0600
 Frc consts  --      5.6723                 5.7064                 5.6957
 IR Inten    --     27.2592                18.7154                33.9547

                     55                     56                     57
                      A                      A                      A
 Frequencies --   3031.0190              3043.1542              3050.8202
 Red. masses --      1.0357                 1.0863                 1.0913
 Frc consts  --      5.6059                 5.9269                 5.9845
 IR Inten    --     22.8455                 1.9414                78.3720

                     58                     59                     60
                      A                      A                      A
 Frequencies --   3054.1722              3057.9494              3064.3575
 Red. masses --      1.0856                 1.1041                 1.1047
 Frc consts  --      5.9665                 6.0829                 6.1120
 IR Inten    --     47.9678                23.6468                74.6137

                     61                     62                     63
                      A                      A                      A
 Frequencies --   3078.1120              3092.4613              3102.4813
 Red. masses --      1.0870                 1.0996                 1.1013
 Frc consts  --      6.0681                 6.1960                 6.2457
 IR Inten    --     30.4501                38.9133                39.7415

 - Thermochemistry -
 -------------------
 Temperature   298.150 Kelvin.  Pressure   1.00000 Atm.
 Atom     1 has atomic number  6 and mass  12.00000

 Molecular mass:   113.12045 amu.
 Principal axes and moments of inertia in atomic units:
                           1         2         3
     Eigenvalues --   456.906351332.139741641.21373
           X            0.99999   0.00444  -0.00045
           Y           -0.00444   0.99998  -0.00496
           Z            0.00043   0.00496   0.99999
 This molecule is an asymmetric top.
 Rotational symmetry number  1.
 Warning -- assumption of classical behavior for rotation
           may cause significant error
 Rotational temperatures (Kelvin)      0.18957     0.06502     0.05277
 Rotational constants (GHZ):           3.94991     1.35477     1.09964
 Zero-point vibrational energy     561923.4 (Joules/Mol)
                                  134.30292 (Kcal/Mol)
 Warning -- explicit consideration of  11 degrees of freedom as
           vibrations may cause significant error
 Vibrational temperatures:    102.79   181.73   313.73   348.16   372.40
          (Kelvin)            465.15   556.51   596.03   668.29   675.17
                              798.74  1100.06  1160.16  1179.44  1226.30
                             1255.00  1310.37  1355.26  1408.19  1478.05
                             1512.70  1524.10  1574.96  1594.83  1661.38
                             1679.96  1694.21  1698.59  1812.77  1852.52
                             1869.82  1897.31  1920.91  1954.53  1978.89
                             1986.33  1990.93  2011.84  2034.29  2056.96
                             2126.88  2139.22  2140.04  2148.77  2149.43
                             2157.58  2166.52  2183.43  4119.98  4131.03
                             4161.48  4320.70  4344.55  4345.02  4360.95
                             4378.41  4389.44  4394.27  4399.70  4408.92
                             4428.71  4449.36  4463.77

 Zero-point correction=                           0.214025 (Hartree/Particle)
 Thermal correction to Energy=                    0.222405
 Thermal correction to Enthalpy=                  0.223349
 Thermal correction to Gibbs Free Energy=         0.181305
 Sum of electronic and zero-point Energies=           -330.407895
 Sum of electronic and thermal Energies=              -330.399515
 Sum of electronic and thermal Enthalpies=            -330.398571
 Sum of electronic and thermal Free Energies=         -330.440615

                     E (Thermal)             CV                S
                      KCal/Mol        Cal/Mol-Kelvin    Cal/Mol-Kelvin
 Total                  139.561             32.512             88.489
 Electronic               0.000              0.000              0.000
 Translational            0.889              2.981             40.086
 Rotational               0.889              2.981             28.393
 Vibrational            137.784             26.550             20.011
 Vibration     1          0.598              1.968              4.113
 Vibration     2          0.611              1.927              3.001
 Vibration     3          0.646              1.814              1.975
 Vibration     4          0.658              1.776              1.788
 Vibration     5          0.668              1.748              1.670
 Vibration     6          0.708              1.629              1.293
 Vibration     7          0.755              1.498              1.012
 Vibration     8          0.778              1.439              0.912
 Vibration     9          0.822              1.329              0.753
 Vibration    10          0.826              1.318              0.740
 Vibration    11          0.911              1.128              0.534

 Optimization completed.
    -- Stationary point found.
 Normal termination of Gaussian 09 at Wed Nov 17 16:16:14 2021.
