 Gaussian 09, Revision D.01,
 Gaussian 09:  ES64L-G09RevD.01 24-Apr-2013

 ----------------------------------------------------------------------
 # opt freq b3lyp/6-311+g(d,p) geom=connectivity pop=(hirshfeld,chelpg,
 mbs,npa)
 ----------------------------------------------------------------------

 -------------------
 Title Card Required
 -------------------
 Symbolic Z-matrix:
 Charge =  0 Multiplicity = 1

 SCF Done:  E(RB3LYP) =  -478.470415423     A.U. after   15 cycles
 SCF Done:  E(RB3LYP) =  -478.490205025     A.U. after   14 cycles
 SCF Done:  E(RB3LYP) =  -478.492569948     A.U. after   12 cycles
 SCF Done:  E(RB3LYP) =  -478.492716827     A.U. after   12 cycles
 SCF Done:  E(RB3LYP) =  -478.493144919     A.U. after   11 cycles
 SCF Done:  E(RB3LYP) =  -478.493371971     A.U. after   11 cycles
 SCF Done:  E(RB3LYP) =  -478.493439989     A.U. after   11 cycles
 SCF Done:  E(RB3LYP) =  -478.493468686     A.U. after   10 cycles
 SCF Done:  E(RB3LYP) =  -478.493481858     A.U. after   10 cycles
 SCF Done:  E(RB3LYP) =  -478.493494619     A.U. after   10 cycles
 SCF Done:  E(RB3LYP) =  -478.493497126     A.U. after    9 cycles
 SCF Done:  E(RB3LYP) =  -478.493497264     A.U. after    8 cycles
 SCF Done:  E(RB3LYP) =  -478.493497282     A.U. after    7 cycles
 Optimization completed.
    -- Stationary point found.
 Normal termination of Gaussian 09 at Mon Nov  1 18:00:20 2021.

 ----------------------------------------------------------------------
 #N Geom=AllCheck Guess=TCheck SCRF=Check GenChk RB3LYP/6-311+G(d,p) Fr
 eq
 ----------------------------------------------------------------------

 Structure from the checkpoint file:  "Chart1_2.chk"
 -------------------
 Title Card Required
 -------------------
 Charge =  0 Multiplicity = 1

                         Standard orientation:
 ---------------------------------------------------------------------
 Center     Atomic      Atomic             Coordinates (Angstroms)
 Number     Number       Type             X           Y           Z
 ---------------------------------------------------------------------
      1          6           0        1.457141    0.844658    0.000020
      2          6           0        0.131555    0.390267    0.000040
      3          6           0       -0.158705   -0.975363    0.000030
      4          6           0        0.803061   -1.971523   -0.000019
      5          6           0        2.122501   -1.521428   -0.000031
      6          6           0        2.436112   -0.151835   -0.000009
      7          1           0        0.548029   -3.023282   -0.000023
      8          1           0        2.928757   -2.245827   -0.000045
      9          1           0        3.480137    0.143005   -0.000018
     10          6           0       -1.991682    0.193191    0.000023
     11          8           0       -1.526589   -1.104358    0.000040
     12          7           0       -1.073847    1.100368    0.000003
     13          6           0       -3.465453    0.368279   -0.000056
     14          1           0       -3.909769   -0.100335   -0.882484
     15          1           0       -3.909740   -0.099514    0.882839
     16          1           0       -3.699016    1.431446   -0.000490
     17          6           0        1.783644    2.312832   -0.000009
     18          1           0        1.359747    2.809086   -0.877777
     19          1           0        1.359282    2.809207    0.877462
     20          1           0        2.863159    2.474025    0.000261
 ---------------------------------------------------------------------

 SCF Done:  E(RB3LYP) =  -478.493497282     A.U. after    1 cycles

 The electronic state is 1-A.
 Alpha  occ. eigenvalues --  -19.19893 -14.31552 -10.27640 -10.23566 -10.20383
 Alpha  occ. eigenvalues --  -10.19151 -10.19109 -10.18521 -10.18241 -10.17592
 Alpha  occ. eigenvalues --  -10.16784  -1.13422  -0.93409  -0.86532  -0.78864
 Alpha  occ. eigenvalues --   -0.78021  -0.72256  -0.69333  -0.63318  -0.60751
 Alpha  occ. eigenvalues --   -0.58671  -0.52693  -0.51008  -0.49190  -0.47741
 Alpha  occ. eigenvalues --   -0.43740  -0.43246  -0.42982  -0.42036  -0.41644
 Alpha  occ. eigenvalues --   -0.41272  -0.39114  -0.36715  -0.35888  -0.35155
 Alpha  occ. eigenvalues --   -0.33330  -0.29736  -0.24805  -0.23846
 Alpha virt. eigenvalues --   -0.03412  -0.00435   0.00198   0.00923   0.01929
 Alpha virt. eigenvalues --    0.02453   0.03233   0.04406   0.04456   0.04540
 Alpha virt. eigenvalues --    0.05809   0.06063   0.06369   0.07729   0.07819

 Mulliken charges:
               1
     1  C    0.517497
     2  C    0.399472
     3  C    0.401442
     4  C   -0.725936
     5  C   -0.124970
     6  C   -0.996960
     7  H    0.125629
     8  H    0.128528
     9  H    0.114947
    10  C    0.238562
    11  O   -0.084231
    12  N   -0.062236
    13  C   -0.335985
    14  H    0.163942
    15  H    0.163951
    16  H    0.173302
    17  C   -0.549835
    18  H    0.160395
    19  H    0.160381
    20  H    0.132105
 Sum of Mulliken charges =   0.00000

 Dipole moment (field-independent basis, Debye):
    X=             -0.4668    Y=             -0.5686    Z=             -0.0001  Tot=              0.7357
 Quadrupole moment (field-independent basis, Debye-Ang):
   XX=            -54.0480   YY=            -64.0652   ZZ=            -66.9994
   XY=              0.1757   XZ=             -0.0001   YZ=              0.0001

  Exact polarizability: 152.716  -3.461 122.502  -0.001   0.000  67.331
 Approx polarizability: 225.992  -1.086 198.832  -0.003   0.000 103.947

 ESP charges:
               1
     1  C    0.022081
     2  C    0.255184
     3  C    0.245389
     4  C   -0.239925
     5  C   -0.109164
     6  C   -0.235098
     7  H    0.154079
     8  H    0.110895
     9  H    0.136617
    10  C    0.655747
    11  O   -0.386812
    12  N   -0.642851
    13  C   -0.303615
    14  H    0.095772
    15  H    0.095778
    16  H    0.094808
    17  C   -0.037808
    18  H    0.035172
    19  H    0.035462
    20  H    0.018290
 Sum of ESP charges =   0.00000

 Summary of Natural Population Analysis:

                                       Natural Population
                Natural  -----------------------------------------------
    Atom  No    Charge         Core      Valence    Rydberg      Total
 -----------------------------------------------------------------------
      C    1   -0.01947      1.99897     4.00493    0.01557     6.01947
      C    2    0.07833      1.99879     3.89922    0.02366     5.92167
      C    3    0.28098      1.99867     3.69655    0.02380     5.71902
      C    4   -0.25142      1.99905     4.23555    0.01682     6.25142
      C    5   -0.19262      1.99920     4.17561    0.01781     6.19262
      C    6   -0.21600      1.99908     4.19993    0.01699     6.21600
      H    7    0.22148      0.00000     0.77681    0.00171     0.77852
      H    8    0.20758      0.00000     0.79091    0.00152     0.79242
      H    9    0.20510      0.00000     0.79332    0.00158     0.79490
      C   10    0.55844      1.99925     3.40641    0.03589     5.44156
      O   11   -0.48973      1.99971     6.47409    0.01594     8.48973
      N   12   -0.49302      1.99932     5.47656    0.01714     7.49302
      C   13   -0.63006      1.99926     4.62205    0.00874     6.63006
      H   14    0.22636      0.00000     0.77216    0.00148     0.77364
      H   15    0.22636      0.00000     0.77216    0.00148     0.77364
      H   16    0.23422      0.00000     0.76443    0.00135     0.76578
      C   17   -0.58930      1.99931     4.57957    0.01043     6.58930
      H   18    0.21967      0.00000     0.77887    0.00146     0.78033
      H   19    0.21967      0.00000     0.77887    0.00146     0.78033
      H   20    0.20344      0.00000     0.79524    0.00133     0.79656
 =======================================================================
   * Total *    0.00000     21.99061    55.79324    0.21615    78.00000

                      1                      2                      3
                      A                      A                      A
 Frequencies --     61.3049               101.7906               136.3101
 Red. masses --      1.0298                 1.0919                 2.9898
 Frc consts  --      0.0023                 0.0067                 0.0327
 IR Inten    --      0.1060                 0.7836                 3.4178

                      4                      5                      6
                      A                      A                      A
 Frequencies --    178.1659               209.9437               276.5032
 Red. masses --      3.8786                 2.8549                 4.6059
 Frc consts  --      0.0725                 0.0741                 0.2075
 IR Inten    --      3.3338                 1.8644                 0.2876

                      7                      8                      9
                      A                      A                      A
 Frequencies --    318.3551               324.5070               477.4715
 Red. masses --      4.2397                 2.8240                 5.2745
 Frc consts  --      0.2532                 0.1752                 0.7085
 IR Inten    --      0.0023                 3.7164                 0.0722

                     10                     11                     12
                      A                      A                      A
 Frequencies --    518.5776               525.5778               578.0402
 Red. masses --      3.4941                 4.3441                 4.5504
 Frc consts  --      0.5536                 0.7070                 0.8958
 IR Inten    --      0.2175                 0.4710                 1.8095

                     13                     14                     15
                      A                      A                      A
 Frequencies --    591.6531               647.3649               669.7811
 Red. masses --      3.8478                 6.1143                 4.4924
 Frc consts  --      0.7936                 1.5097                 1.1874
 IR Inten    --      0.0013                 0.1929                 0.1205

                     16                     17                     18
                      A                      A                      A
 Frequencies --    761.3384               761.8870               782.6386
 Red. masses --      1.8909                 5.8539                 2.4426
 Frc consts  --      0.6458                 2.0020                 0.8815
 IR Inten    --     44.4873                 3.6719                22.4595

                     19                     20                     21
                      A                      A                      A
 Frequencies --    879.6961               893.7575               937.6544
 Red. masses --      4.4595                 1.3400                 6.0264
 Frc consts  --      2.0333                 0.6306                 3.1217
 IR Inten    --     15.0848                 0.0205                25.2829

                     22                     23                     24
                      A                      A                      A
 Frequencies --    971.3273               973.4247              1032.1422
 Red. masses --      1.2909                 1.9913                 1.9705
 Frc consts  --      0.7176                 1.1117                 1.2368
 IR Inten    --      0.7175                11.3831                 0.1166

                     25                     26                     27
                      A                      A                      A
 Frequencies --   1059.1368              1060.1517              1063.8039
 Red. masses --      1.5164                 2.8339                 1.5486
 Frc consts  --      1.0022                 1.8766                 1.0325
 IR Inten    --      1.3399                10.9553                 2.9249

                     28                     29                     30
                      A                      A                      A
 Frequencies --   1093.2823              1176.7261              1220.2148
 Red. masses --      1.7405                 1.2891                 5.6062
 Frc consts  --      1.2257                 1.0517                 4.9180
 IR Inten    --     29.7313                 2.7628                39.1742

                     31                     32                     33
                      A                      A                      A
 Frequencies --   1259.1319              1284.4786              1297.3801
 Red. masses --      3.8624                 1.8170                 4.1844
 Frc consts  --      3.6079                 1.7663                 4.1498
 IR Inten    --     57.3328                 6.4237                13.8131

                     34                     35                     36
                      A                      A                      A
 Frequencies --   1374.3259              1414.5691              1416.8260
 Red. masses --      4.7668                 1.3678                 1.2650
 Frc consts  --      5.3046                 1.6126                 1.4962
 IR Inten    --      9.5478                 8.6307                 0.5175

                     37                     38                     39
                      A                      A                      A
 Frequencies --   1442.7881              1474.9864              1478.4874
 Red. masses --      2.3417                 1.0425                 1.0427
 Frc consts  --      2.8720                 1.3362                 1.3430
 IR Inten    --     20.2583                10.8731                 6.6484

                     40                     41                     42
                      A                      A                      A
 Frequencies --   1478.7878              1497.1566              1525.2759
 Red. masses --      1.0814                 1.1647                 3.0023
 Frc consts  --      1.3932                 1.5382                 4.1153
 IR Inten    --     13.8476                22.8787                 8.6162

                     43                     44                     45
                      A                      A                      A
 Frequencies --   1614.9675              1653.3861              1656.2997
 Red. masses --      8.2827                 7.6832                 8.1264
 Frc consts  --     12.7276                12.3749                13.1349
 IR Inten    --     27.5393                43.7959                37.2952

                     46                     47                     48
                      A                      A                      A
 Frequencies --   3030.3174              3039.5630              3079.8840
 Red. masses --      1.0359                 1.0381                 1.0998
 Frc consts  --      5.6043                 5.6506                 6.1466
 IR Inten    --     24.5955                14.6983                12.3521

                     49                     50                     51
                      A                      A                      A
 Frequencies --   3090.7183              3107.8968              3147.8726
 Red. masses --      1.1003                 1.1021                 1.0999
 Frc consts  --      6.1929                 6.2720                 6.4215
 IR Inten    --      7.4599                18.2082                 3.1554

                     52                     53                     54
                      A                      A                      A
 Frequencies --   3162.4148              3182.0757              3204.2631
 Red. masses --      1.0879                 1.0913                 1.0952
 Frc consts  --      6.4102                 6.5104                 6.6250
 IR Inten    --      9.8541                12.4072                 5.3595

 - Thermochemistry -
 -------------------
 Temperature   298.150 Kelvin.  Pressure   1.00000 Atm.
 Atom     1 has atomic number  6 and mass  12.00000

 Molecular mass:   147.06841 amu.
 Principal axes and moments of inertia in atomic units:
                           1         2         3
     Eigenvalues --   859.514951868.373422705.58448
           X            0.99996   0.00882   0.00000
           Y           -0.00882   0.99996   0.00000
           Z            0.00000   0.00000   1.00000
 This molecule is an asymmetric top.
 Rotational symmetry number  1.
 Warning -- assumption of classical behavior for rotation
           may cause significant error
 Rotational temperatures (Kelvin)      0.10077     0.04636     0.03201
 Rotational constants (GHZ):           2.09972     0.96594     0.66704
 Zero-point vibrational energy     419867.6 (Joules/Mol)
                                  100.35076 (Kcal/Mol)
 Warning -- explicit consideration of  13 degrees of freedom as
           vibrations may cause significant error
 Vibrational temperatures:     88.20   146.45   196.12   256.34   302.06
          (Kelvin)            397.83   458.04   466.89   686.97   746.12
                              756.19   831.67   851.26   931.41   963.66
                             1095.39  1096.18  1126.04  1265.68  1285.92
                             1349.07  1397.52  1400.54  1485.02  1523.86
                             1525.32  1530.57  1572.99  1693.04  1755.61
                             1811.61  1848.08  1866.64  1977.35  2035.25
                             2038.49  2075.85  2122.17  2127.21  2127.64
                             2154.07  2194.53  2323.58  2378.85  2383.04
                             4359.95  4373.25  4431.26  4446.85  4471.56
                             4529.08  4550.00  4578.29  4610.21

 Zero-point correction=                           0.159919 (Hartree/Particle)
 Thermal correction to Energy=                    0.169382
 Thermal correction to Enthalpy=                  0.170326
 Thermal correction to Gibbs Free Energy=         0.124914
 Sum of electronic and zero-point Energies=           -478.333578
 Sum of electronic and thermal Energies=              -478.324116
 Sum of electronic and thermal Enthalpies=            -478.323172
 Sum of electronic and thermal Free Energies=         -478.368584

                     E (Thermal)             CV                S
                      KCal/Mol        Cal/Mol-Kelvin    Cal/Mol-Kelvin
 Total                  106.288             35.938             95.578
 Electronic               0.000              0.000              0.000
 Translational            0.889              2.981             40.868
 Rotational               0.889              2.981             29.853
 Vibrational            104.511             29.976             24.857
 Vibration     1          0.597              1.973              4.415
 Vibration     2          0.604              1.948              3.420
 Vibration     3          0.614              1.917              2.855
 Vibration     4          0.629              1.869              2.348
 Vibration     5          0.642              1.826              2.044
 Vibration     6          0.678              1.717              1.555
 Vibration     7          0.705              1.638              1.319
 Vibration     8          0.709              1.626              1.287
 Vibration     9          0.834              1.300              0.717
 Vibration    10          0.874              1.209              0.613
 Vibration    11          0.881              1.193              0.597
 Vibration    12          0.935              1.079              0.489
 Vibration    13          0.949              1.050              0.464

 Optimization completed.
    -- Stationary point found.
 Normal termination of Gaussian 09 at Mon Nov  1 18:42:09 2021.
