 Gaussian 09, Revision D.01,
 Gaussian 09:  ES64L-G09RevD.01 24-Apr-2013

 ----------------------------------------------------------------------
 # opt=rcfc freq=noraman b3lyp/6-311+g(d,p) pop=(npa,hirshfeld,chelpg,m
 bs) geom=allcheck guess=read
 ----------------------------------------------------------------------

 Structure from the checkpoint file:  "64.chk"
 -------------------
 Title Card Required
 -------------------
 Charge =  0 Multiplicity = 1

 SCF Done:  E(RB3LYP) =  -519.234454544     A.U. after    1 cycles
 SCF Done:  E(RB3LYP) =  -519.234454638     A.U. after    6 cycles
 Optimization completed.
    -- Stationary point found.
 Normal termination of Gaussian 09 at Wed Apr 24 12:52:53 2024.

 ----------------------------------------------------------------------
 #N Geom=AllCheck Guess=TCheck SCRF=Check GenChk RB3LYP/6-311+G(d,p) Fr
 eq
 ----------------------------------------------------------------------

 Structure from the checkpoint file:  "64.chk"
 -------------------
 Title Card Required
 -------------------
 Charge =  0 Multiplicity = 1

                         Standard orientation:
 ---------------------------------------------------------------------
 Center     Atomic      Atomic             Coordinates (Angstroms)
 Number     Number       Type             X           Y           Z
 ---------------------------------------------------------------------
      1          6           0       -3.567042   -0.604999    0.108599
      2          6           0       -2.163464   -1.262737   -0.025224
      3          6           0       -2.868401    0.783890    0.028499
      4          1           0       -4.231895   -0.812526   -0.729176
      5          1           0       -4.089794   -0.809844    1.041738
      6          1           0       -2.023147   -1.940718   -0.869981
      7          1           0       -1.791468   -1.744606    0.883785
      8          1           0       -3.189393    1.443171   -0.780866
      9          1           0       -2.852987    1.351522    0.963731
     10          7           0       -1.606585    0.082555   -0.238383
     11          6           0       -0.349480    0.572680   -0.073655
     12          8           0       -0.094919    1.757779    0.038013
     13          8           0        0.546583   -0.445628   -0.069988
     14          6           0        1.997108   -0.191739    0.014758
     15          6           0        2.456927    0.635516   -1.188716
     16          1           0        2.036120    1.639569   -1.161756
     17          1           0        3.547834    0.711541   -1.182338
     18          1           0        2.156434    0.149558   -2.120739
     19          6           0        2.585132   -1.602464   -0.042398
     20          1           0        3.675394   -1.555640    0.014921
     21          1           0        2.219890   -2.205803    0.791851
     22          1           0        2.307379   -2.098184   -0.975286
     23          6           0        2.338095    0.481972    1.346966
     24          1           0        1.957476   -0.112839    2.181666
     25          1           0        3.424414    0.554060    1.450710
     26          1           0        1.913285    1.482938    1.403244
 ---------------------------------------------------------------------

 SCF Done:  E(RB3LYP) =  -519.234454638     A.U. after    1 cycles

 The electronic state is 1-A.
 Alpha  occ. eigenvalues --  -19.15054 -19.08601 -14.33451 -10.30896 -10.24281
 Alpha  occ. eigenvalues --  -10.21486 -10.21174 -10.18666 -10.16298 -10.15679
 Alpha  occ. eigenvalues --  -10.15653  -1.09518  -1.00808  -0.95862  -0.81700
 Alpha  occ. eigenvalues --   -0.76677  -0.69998  -0.69525  -0.69346  -0.63812
 Alpha  occ. eigenvalues --   -0.58590  -0.54513  -0.50965  -0.50895  -0.47116
 Alpha  occ. eigenvalues --   -0.46453  -0.45113  -0.43264  -0.43125  -0.41335
 Alpha  occ. eigenvalues --   -0.40708  -0.39529  -0.39057  -0.38185  -0.37025
 Alpha  occ. eigenvalues --   -0.36665  -0.35551  -0.34910  -0.34745  -0.33531
 Alpha  occ. eigenvalues --   -0.29444  -0.26919  -0.24563
 Alpha virt. eigenvalues --   -0.00050   0.00856   0.02034   0.02178   0.02651
 Alpha virt. eigenvalues --    0.03200   0.03562   0.04679   0.05265   0.05489
 Alpha virt. eigenvalues --    0.05901   0.06207   0.06963   0.07065   0.07465

 Mulliken charges:
               1
     1  C   -0.243483
     2  C   -0.243626
     3  C   -0.238240
     4  H    0.151766
     5  H    0.154390
     6  H    0.155292
     7  H    0.151194
     8  H    0.157517
     9  H    0.154418
    10  N   -0.144589
    11  C    0.226325
    12  O   -0.325383
    13  O    0.009514
    14  C   -0.231652
    15  C   -0.336188
    16  H    0.184267
    17  H    0.136224
    18  H    0.144611
    19  C   -0.443008
    20  H    0.144470
    21  H    0.153255
    22  H    0.154686
    23  C   -0.336209
    24  H    0.142172
    25  H    0.136292
    26  H    0.185987
 Sum of Mulliken charges =   0.00000

 Dipole moment (field-independent basis, Debye):
    X=             -0.9208    Y=             -2.4475    Z=              0.2954  Tot=              2.6316
 Quadrupole moment (field-independent basis, Debye-Ang):
   XX=            -56.6392   YY=            -73.9708   ZZ=            -67.4967
   XY=              0.8398   XZ=             -0.4410   YZ=             -0.2448

  Exact polarizability: 131.216   1.484 106.184   0.258   0.576  91.133
 Approx polarizability: 156.073   4.499 156.056   1.684   2.032 129.864

 ESP charges:
               1
     1  C   -0.194785
     2  C    0.240176
     3  C    0.253029
     4  H    0.064129
     5  H    0.047637
     6  H   -0.011576
     7  H    0.004175
     8  H   -0.016642
     9  H   -0.000372
    10  N   -0.407056
    11  C    0.851482
    12  O   -0.639043
    13  O   -0.626117
    14  C    0.885371
    15  C   -0.419013
    16  H    0.117295
    17  H    0.071640
    18  H    0.081593
    19  C   -0.452947
    20  H    0.090626
    21  H    0.098135
    22  H    0.104287
    23  C   -0.398476
    24  H    0.082614
    25  H    0.060506
    26  H    0.113331
 Sum of ESP charges =   0.00000

 Summary of Natural Population Analysis:

                                       Natural Population
                Natural  -----------------------------------------------
    Atom  No    Charge         Core      Valence    Rydberg      Total
 -----------------------------------------------------------------------
      C    1   -0.39897      1.99929     4.38923    0.01046     6.39897
      C    2   -0.14570      1.99938     4.13125    0.01507     6.14570
      C    3   -0.14438      1.99939     4.12917    0.01582     6.14438
      H    4    0.20283      0.00000     0.79551    0.00165     0.79717
      H    5    0.20309      0.00000     0.79535    0.00156     0.79691
      H    6    0.19193      0.00000     0.80628    0.00179     0.80807
      H    7    0.18939      0.00000     0.80841    0.00220     0.81061
      H    8    0.19370      0.00000     0.80458    0.00172     0.80630
      H    9    0.19263      0.00000     0.80515    0.00222     0.80737
      N   10   -0.53343      1.99928     5.51271    0.02144     7.53343
      C   11    0.93230      1.99929     3.01965    0.04875     5.06770
      O   12   -0.66107      1.99974     6.65120    0.01013     8.66107
      O   13   -0.60404      1.99969     6.58584    0.01851     8.60404
      C   14    0.27243      1.99912     3.70721    0.02124     5.72757
      C   15   -0.60571      1.99924     4.59522    0.01125     6.60571
      H   16    0.23223      0.00000     0.76629    0.00149     0.76777
      H   17    0.20410      0.00000     0.79473    0.00117     0.79590
      H   18    0.20500      0.00000     0.79369    0.00131     0.79500
      C   19   -0.58028      1.99924     4.56898    0.01206     6.58028
      H   20    0.20369      0.00000     0.79522    0.00109     0.79631
      H   21    0.20726      0.00000     0.79134    0.00140     0.79274
      H   22    0.20821      0.00000     0.79041    0.00138     0.79179
      C   23   -0.60484      1.99924     4.59433    0.01127     6.60484
      H   24    0.20337      0.00000     0.79529    0.00134     0.79663
      H   25    0.20370      0.00000     0.79512    0.00118     0.79630
      H   26    0.23258      0.00000     0.76596    0.00147     0.76742
 =======================================================================
   * Total *    0.00000     21.99290    63.78812    0.21898    86.00000

                      1                      2                      3
                      A                      A                      A
 Frequencies --     42.8028                77.0577               102.2175
 Red. masses --      3.3673                 2.6268                 3.1281
 Frc consts  --      0.0036                 0.0092                 0.0193
 IR Inten    --      3.5230                 0.2963                 0.9333

                      4                      5                      6
                      A                      A                      A
 Frequencies --    113.4154               141.4778               151.9152
 Red. masses --      3.6396                 2.6502                 2.5505
 Frc consts  --      0.0276                 0.0313                 0.0347
 IR Inten    --      1.5135                 4.0534                 4.0123

                      7                      8                      9
                      A                      A                      A
 Frequencies --    206.3057               226.9290               253.7207
 Red. masses --      1.0992                 3.8394                 1.0425
 Frc consts  --      0.0276                 0.1165                 0.0395
 IR Inten    --      0.0942                 6.9875                 0.0222

                     10                     11                     12
                      A                      A                      A
 Frequencies --    268.6277               316.7642               330.1463
 Red. masses --      1.0714                 2.8205                 3.9121
 Frc consts  --      0.0456                 0.1667                 0.2512
 IR Inten    --      0.0393                 2.0075                 8.9510

                     13                     14                     15
                      A                      A                      A
 Frequencies --    348.4931               413.9702               458.1321
 Red. masses --      2.5126                 2.8011                 2.9082
 Frc consts  --      0.1798                 0.2828                 0.3596
 IR Inten    --      1.0264                 1.9755                 2.6234

                     16                     17                     18
                      A                      A                      A
 Frequencies --    491.0624               558.0823               750.3750
 Red. masses --      2.6568                 5.1556                 2.1364
 Frc consts  --      0.3775                 0.9461                 0.7087
 IR Inten    --      0.7015                11.5628                 5.3402

                     19                     20                     21
                      A                      A                      A
 Frequencies --    760.4081               782.3996               813.7996
 Red. masses --      2.1887                 3.7229                 5.5877
 Frc consts  --      0.7456                 1.3427                 2.1803
 IR Inten    --      5.9804                16.2783                 2.5650

                     22                     23                     24
                      A                      A                      A
 Frequencies --    845.6170               859.3344               904.8726
 Red. masses --      1.1828                 3.0249                 3.4540
 Frc consts  --      0.4983                 1.3161                 1.6663
 IR Inten    --      0.8325                17.5982                21.6933

                     25                     26                     27
                      A                      A                      A
 Frequencies --    923.0646               926.7306               931.7316
 Red. masses --      1.6487                 1.6816                 2.6120
 Frc consts  --      0.8277                 0.8509                 1.3360
 IR Inten    --      0.0107                 0.2253                 3.4564

                     28                     29                     30
                      A                      A                      A
 Frequencies --    968.3942               974.5519              1050.0873
 Red. masses --      1.2006                 3.4767                 1.4075
 Frc consts  --      0.6634                 1.9455                 0.9145
 IR Inten    --      0.0988                10.2681                 0.5332

                     31                     32                     33
                      A                      A                      A
 Frequencies --   1056.2112              1132.0855              1138.8768
 Red. masses --      1.4336                 2.4902                 1.1614
 Frc consts  --      0.9423                 1.8803                 0.8876
 IR Inten    --      0.5469               187.0404                26.0666

                     34                     35                     36
                      A                      A                      A
 Frequencies --   1150.4644              1180.5009              1200.8714
 Red. masses --      2.7781                 3.0185                 1.2862
 Frc consts  --      2.1664                 2.4784                 1.0929
 IR Inten    --    182.4235                73.3519                19.3433

                     37                     38                     39
                      A                      A                      A
 Frequencies --   1205.9599              1229.3891              1263.6953
 Red. masses --      1.9556                 1.2342                 2.7263
 Frc consts  --      1.6757                 1.0990                 2.5652
 IR Inten    --     55.3648                 2.1621                15.4349

                     40                     41                     42
                      A                      A                      A
 Frequencies --   1268.0389              1277.3037              1295.7559
 Red. masses --      1.5720                 2.7535                 1.4801
 Frc consts  --      1.4893                 2.6468                 1.4642
 IR Inten    --      8.4344                32.8245                 4.1875

                     43                     44                     45
                      A                      A                      A
 Frequencies --   1335.2039              1396.4223              1398.0461
 Red. masses --      1.5319                 1.2792                 1.3044
 Frc consts  --      1.6091                 1.4697                 1.5021
 IR Inten    --     10.0852                24.1073                31.4458

                     46                     47                     48
                      A                      A                      A
 Frequencies --   1413.6050              1424.7444              1469.5034
 Red. masses --      7.8561                 1.2361                 1.0456
 Frc consts  --      9.2494                 1.4784                 1.3303
 IR Inten    --    593.5681                22.3525                 0.2627

                     49                     50                     51
                      A                      A                      A
 Frequencies --   1490.6744              1491.1848              1493.1223
 Red. masses --      1.0468                 1.0506                 1.1093
 Frc consts  --      1.3705                 1.3764                 1.4571
 IR Inten    --      0.8500                 1.6445                 1.9680

                     52                     53                     54
                      A                      A                      A
 Frequencies --   1495.9483              1505.4712              1512.6926
 Red. masses --      1.0661                 1.0520                 1.0795
 Frc consts  --      1.4057                 1.4048                 1.4554
 IR Inten    --     16.9243                 2.1369                 0.0125

                     55                     56                     57
                      A                      A                      A
 Frequencies --   1527.4534              1535.8774              1747.2920
 Red. masses --      1.0577                 1.1163                11.3018
 Frc consts  --      1.4539                 1.5515                20.3296
 IR Inten    --     26.5811                 4.6854               448.8794

                     58                     59                     60
                      A                      A                      A
 Frequencies --   3031.7071              3032.2914              3033.1076
 Red. masses --      1.0559                 1.0365                 1.0365
 Frc consts  --      5.7182                 5.6152                 5.6182
 IR Inten    --     74.7474                20.2082                23.8482

                     61                     62                     63
                      A                      A                      A
 Frequencies --   3037.1490              3040.8242              3076.1079
 Red. masses --      1.0598                 1.0377                 1.1034
 Frc consts  --      5.7600                 5.6534                 6.1517
 IR Inten    --     18.2906                22.2804                27.7264

                     64                     65                     66
                      A                      A                      A
 Frequencies --   3079.3468              3083.1242              3091.6776
 Red. masses --      1.1051                 1.0684                 1.1018
 Frc consts  --      6.1741                 5.9834                 6.2049
 IR Inten    --      9.9587                45.2072                10.2396

                     67                     68                     69
                      A                      A                      A
 Frequencies --   3094.5961              3106.6626              3107.8213
 Red. masses --      1.1016                 1.1026                 1.1017
 Frc consts  --      6.2158                 6.2699                 6.2696
 IR Inten    --     16.2204                32.8999                47.6648

                     70                     71                     72
                      A                      A                      A
 Frequencies --   3133.6548              3136.2416              3139.6241
 Red. masses --      1.1096                 1.0999                 1.0992
 Frc consts  --      6.4200                 6.3741                 6.3836
 IR Inten    --     29.4261                 1.0349                11.5930

 - Thermochemistry -
 -------------------
 Temperature   298.150 Kelvin.  Pressure   1.00000 Atm.
 Atom     1 has atomic number  6 and mass  12.00000

 Molecular mass:   157.11028 amu.
 Principal axes and moments of inertia in atomic units:
                           1         2         3
     Eigenvalues --   779.930742871.248813205.56442
           X            1.00000   0.00078  -0.00128
           Y           -0.00078   1.00000  -0.00106
           Z            0.00128   0.00106   1.00000
 This molecule is an asymmetric top.
 Rotational symmetry number  1.
 Warning -- assumption of classical behavior for rotation
           may cause significant error
 Rotational temperatures (Kelvin)      0.11105     0.03017     0.02702
 Rotational constants (GHZ):           2.31398     0.62856     0.56300
 Zero-point vibrational energy     591271.1 (Joules/Mol)
                                  141.31720 (Kcal/Mol)
 Warning -- explicit consideration of  17 degrees of freedom as
           vibrations may cause significant error
 Vibrational temperatures:     61.58   110.87   147.07   163.18   203.55
          (Kelvin)            218.57   296.83   326.50   365.05   386.49
                              455.75   475.01   501.40   595.61   659.15
                              706.53   802.95  1079.62  1094.06  1125.70
                             1170.87  1216.65  1236.39  1301.91  1328.08
                             1333.36  1340.55  1393.30  1402.16  1510.84
                             1519.65  1628.82  1638.59  1655.26  1698.48
                             1727.78  1735.11  1768.81  1818.17  1824.42
                             1837.75  1864.30  1921.06  2009.14  2011.47
                             2033.86  2049.89  2114.29  2144.75  2145.48
                             2148.27  2152.33  2166.03  2176.42  2197.66
                             2209.78  2513.96  4361.94  4362.79  4363.96
                             4369.77  4375.06  4425.83  4430.49  4435.92
                             4448.23  4452.43  4469.79  4471.46  4508.62
                             4512.35  4517.21

 Zero-point correction=                           0.225203 (Hartree/Particle)
 Thermal correction to Energy=                    0.237607
 Thermal correction to Enthalpy=                  0.238552
 Thermal correction to Gibbs Free Energy=         0.186635
 Sum of electronic and zero-point Energies=           -519.009251
 Sum of electronic and thermal Energies=              -518.996847
 Sum of electronic and thermal Enthalpies=            -518.995903
 Sum of electronic and thermal Free Energies=         -519.047820

                     E (Thermal)             CV                S
                      KCal/Mol        Cal/Mol-Kelvin    Cal/Mol-Kelvin
 Total                  149.101             45.420            109.268
 Electronic               0.000              0.000              0.000
 Translational            0.889              2.981             41.065
 Rotational               0.889              2.981             30.352
 Vibrational            147.323             39.458             37.851
 Vibration     1          0.595              1.980              5.125
 Vibration     2          0.599              1.964              3.964
 Vibration     3          0.604              1.947              3.412
 Vibration     4          0.607              1.938              3.210
 Vibration     5          0.615              1.912              2.784
 Vibration     6          0.619              1.901              2.648
 Vibration     7          0.641              1.831              2.076
 Vibration     8          0.651              1.800              1.903
 Vibration     9          0.665              1.757              1.705
 Vibration    10          0.673              1.731              1.605
 Vibration    11          0.704              1.642              1.327
 Vibration    12          0.713              1.615              1.259
 Vibration    13          0.726              1.578              1.173
 Vibration    14          0.778              1.440              0.913
 Vibration    15          0.816              1.343              0.772
 Vibration    16          0.847              1.270              0.681
 Vibration    17          0.914              1.122              0.528

 Optimization completed.
    -- Stationary point found.
 Normal termination of Gaussian 09 at Wed Apr 24 12:56:30 2024.
