 Gaussian 09, Revision D.01,
 Gaussian 09:  ES64L-G09RevD.01 24-Apr-2013

 ----------------------------------------------------------------------
 # opt freq=noraman b3lyp/6-311+g(d,p) pop=(npa,hirshfeld,chelpg,mbs) g
 eom=connectivity
 ----------------------------------------------------------------------

 -------------------
 Title Card Required
 -------------------
 Symbolic Z-matrix:
 Charge =  0 Multiplicity = 1

 SCF Done:  E(RB3LYP) =  -432.541637716     A.U. after   12 cycles
 SCF Done:  E(RB3LYP) =  -432.558576167     A.U. after   11 cycles
 SCF Done:  E(RB3LYP) =  -432.562169116     A.U. after   10 cycles
 SCF Done:  E(RB3LYP) =  -432.564221376     A.U. after   10 cycles
 SCF Done:  E(RB3LYP) =  -432.563837751     A.U. after   12 cycles
 SCF Done:  E(RB3LYP) =  -432.565748438     A.U. after    9 cycles
 SCF Done:  E(RB3LYP) =  -432.566163874     A.U. after    9 cycles
 SCF Done:  E(RB3LYP) =  -432.566298133     A.U. after   10 cycles
 SCF Done:  E(RB3LYP) =  -432.566318891     A.U. after   10 cycles
 SCF Done:  E(RB3LYP) =  -432.566320142     A.U. after    8 cycles
 SCF Done:  E(RB3LYP) =  -432.566320188     A.U. after    7 cycles
 Optimization completed.
    -- Stationary point found.
 Normal termination of Gaussian 09 at Tue Apr 23 12:30:27 2024.

 ----------------------------------------------------------------------
 #N Geom=AllCheck Guess=TCheck SCRF=Check GenChk RB3LYP/6-311+G(d,p) Fr
 eq
 ----------------------------------------------------------------------

 Structure from the checkpoint file:  "47.chk"
 -------------------
 Title Card Required
 -------------------
 Charge =  0 Multiplicity = 1

                         Standard orientation:
 ---------------------------------------------------------------------
 Center     Atomic      Atomic             Coordinates (Angstroms)
 Number     Number       Type             X           Y           Z
 ---------------------------------------------------------------------
      1          6           0       -1.053992   -0.281392    0.232140
      2          6           0       -2.106112   -1.353931   -0.107424
      3          6           0       -3.517946   -0.961774    0.350129
      4          6           0       -3.936407    0.400969   -0.217934
      5          6           0       -2.901433    1.482326    0.118888
      6          6           0       -1.490367    1.082147   -0.337315
      7          1           0       -4.236768   -1.733625    0.055195
      8          1           0       -2.110298   -1.514390   -1.194659
      9          1           0       -1.817206   -2.309514    0.344526
     10          1           0       -1.019703   -0.188883    1.328706
     11          1           0       -4.035037    0.322821   -1.308751
     12          1           0       -4.922493    0.685916    0.163881
     13          1           0       -3.185710    2.435838   -0.338750
     14          1           0       -2.894730    1.649135    1.204111
     15          1           0       -1.466702    1.027821   -1.435074
     16          1           0       -0.778251    1.861713   -0.050172
     17          1           0       -3.542517   -0.917399    1.446958
     18          6           0        0.344900   -0.710567   -0.243625
     19          1           0        0.523197   -1.740469    0.091721
     20          1           0        0.352974   -0.745362   -1.341700
     21          6           0        1.503073    0.168469    0.245892
     22          1           0        1.380641    1.192423   -0.125220
     23          1           0        1.466587    0.234467    1.341407
     24          6           0        2.880572   -0.352455   -0.180682
     25          1           0        2.917247   -0.425804   -1.275570
     26          6           0        4.045581    0.517712    0.304688
     27          1           0        4.006812    0.594018    1.398299
     28          1           0        3.915983    1.538501   -0.075235
     29          6           0        5.417752   -0.013593   -0.120055
     30          1           0        6.225393    0.628740    0.242208
     31          1           0        5.591735   -1.019768    0.274614
     32          1           0        5.500961   -0.068379   -1.210204
     33          1           0        3.014151   -1.375277    0.195503
 ---------------------------------------------------------------------

 SCF Done:  E(RB3LYP) =  -432.566320188     A.U. after    1 cycles

 The electronic state is 1-A.
 Alpha  occ. eigenvalues --  -10.16674 -10.16311 -10.16095 -10.16063 -10.16056
 Alpha  occ. eigenvalues --  -10.16049 -10.16013 -10.15965 -10.15912 -10.15908
 Alpha  occ. eigenvalues --  -10.15638  -0.83459  -0.80171  -0.76836  -0.73837
 Alpha  occ. eigenvalues --   -0.72708  -0.66911  -0.61541  -0.60485  -0.57773
 Alpha  occ. eigenvalues --   -0.57086  -0.54973  -0.47846  -0.47315  -0.44796
 Alpha  occ. eigenvalues --   -0.44053  -0.43471  -0.42493  -0.42240  -0.40638
 Alpha  occ. eigenvalues --   -0.38370  -0.37759  -0.37527  -0.36809  -0.34945
 Alpha  occ. eigenvalues --   -0.34134  -0.33788  -0.32976  -0.32914  -0.32574
 Alpha  occ. eigenvalues --   -0.32085  -0.31331  -0.29448  -0.28952
 Alpha virt. eigenvalues --    0.00366   0.01106   0.01463   0.01748   0.02349
 Alpha virt. eigenvalues --    0.03028   0.03588   0.04033   0.04981   0.05091
 Alpha virt. eigenvalues --    0.05453   0.05863   0.06390   0.06842   0.07392

 Mulliken charges:
               1
     1  C    0.723234
     2  C   -0.353908
     3  C   -0.315132
     4  C   -0.321480
     5  C   -0.328825
     6  C   -0.379210
     7  H    0.143547
     8  H    0.143691
     9  H    0.135702
    10  H    0.124811
    11  H    0.137987
    12  H    0.140453
    13  H    0.142644
    14  H    0.140353
    15  H    0.140984
    16  H    0.139766
    17  H    0.140076
    18  C   -0.597712
    19  H    0.135675
    20  H    0.143342
    21  C   -0.170153
    22  H    0.135043
    23  H    0.135541
    24  C   -0.429283
    25  H    0.138383
    26  C   -0.220637
    27  H    0.134955
    28  H    0.134346
    29  C   -0.633919
    30  H    0.136730
    31  H    0.132219
    32  H    0.132379
    33  H    0.138397
 Sum of Mulliken charges =   0.00000

 Dipole moment (field-independent basis, Debye):
    X=             -0.0614    Y=              0.0666    Z=              0.0813  Tot=              0.1217
 Quadrupole moment (field-independent basis, Debye-Ang):
   XX=            -75.9815   YY=            -74.9176   ZZ=            -73.9539
   XY=              0.2570   XZ=              0.2994   YZ=             -0.5539

  Exact polarizability: 159.705  -0.455 122.189  -0.995   1.153 111.077
 Approx polarizability: 175.645  -0.567 175.686  -0.372   1.024 176.959

 ESP charges:
               1
     1  C    0.262800
     2  C   -0.074904
     3  C    0.058038
     4  C    0.037655
     5  C    0.007100
     6  C   -0.055147
     7  H   -0.017549
     8  H   -0.001303
     9  H   -0.002789
    10  H   -0.049296
    11  H   -0.016486
    12  H   -0.021067
    13  H   -0.004476
    14  H   -0.011261
    15  H    0.010979
    16  H   -0.008556
    17  H   -0.022760
    18  C   -0.140512
    19  H    0.016963
    20  H    0.006949
    21  C    0.037903
    22  H   -0.008752
    23  H   -0.018580
    24  C    0.014729
    25  H   -0.006848
    26  C    0.158198
    27  H   -0.036164
    28  H   -0.037317
    29  C   -0.174234
    30  H    0.039213
    31  H    0.030222
    32  H    0.031233
    33  H   -0.003982
 Sum of ESP charges =   0.00000

 Summary of Natural Population Analysis:

                                       Natural Population
                Natural  -----------------------------------------------
    Atom  No    Charge         Core      Valence    Rydberg      Total
 -----------------------------------------------------------------------
      C    1   -0.22001      1.99919     4.20367    0.01715     6.22001
      C    2   -0.37795      1.99925     4.36265    0.01604     6.37795
      C    3   -0.38172      1.99929     4.36731    0.01513     6.38172
      C    4   -0.38323      1.99929     4.36904    0.01490     6.38323
      C    5   -0.38128      1.99929     4.36692    0.01507     6.38128
      C    6   -0.38333      1.99925     4.36790    0.01618     6.38333
      H    7    0.19838      0.00000     0.79991    0.00171     0.80162
      H    8    0.18851      0.00000     0.80913    0.00236     0.81149
      H    9    0.19861      0.00000     0.79971    0.00168     0.80139
      H   10    0.18354      0.00000     0.81217    0.00429     0.81646
      H   11    0.18700      0.00000     0.81069    0.00231     0.81300
      H   12    0.19849      0.00000     0.79999    0.00151     0.80151
      H   13    0.19825      0.00000     0.80005    0.00171     0.80175
      H   14    0.18737      0.00000     0.81028    0.00235     0.81263
      H   15    0.18809      0.00000     0.80956    0.00235     0.81191
      H   16    0.20040      0.00000     0.79795    0.00165     0.79960
      H   17    0.18721      0.00000     0.81043    0.00236     0.81279
      C   18   -0.37289      1.99925     4.35696    0.01668     6.37289
      H   19    0.19295      0.00000     0.80490    0.00215     0.80705
      H   20    0.18986      0.00000     0.80786    0.00229     0.81014
      C   21   -0.37863      1.99928     4.36531    0.01404     6.37863
      H   22    0.19006      0.00000     0.80755    0.00239     0.80994
      H   23    0.18806      0.00000     0.80955    0.00239     0.81194
      C   24   -0.37764      1.99928     4.36403    0.01432     6.37764
      H   25    0.18797      0.00000     0.80975    0.00227     0.81203
      C   26   -0.38213      1.99931     4.36977    0.01305     6.38213
      H   27    0.18742      0.00000     0.81028    0.00230     0.81258
      H   28    0.18745      0.00000     0.81025    0.00230     0.81255
      C   29   -0.57253      1.99938     4.56402    0.00913     6.57253
      H   30    0.19901      0.00000     0.79977    0.00122     0.80099
      H   31    0.19271      0.00000     0.80557    0.00172     0.80729
      H   32    0.19275      0.00000     0.80552    0.00172     0.80725
      H   33    0.18727      0.00000     0.81040    0.00234     0.81273
 =======================================================================
   * Total *    0.00000     21.99206    65.79885    0.20909    88.00000

                      1                      2                      3
                      A                      A                      A
 Frequencies --     49.2663                54.1608                74.0578
 Red. masses --      3.0538                 1.6665                 3.2951
 Frc consts  --      0.0044                 0.0029                 0.0106
 IR Inten    --      0.0028                 0.0061                 0.0007

                      4                      5                      6
                      A                      A                      A
 Frequencies --    116.2978               133.7009               163.5681
 Red. masses --      2.5160                 1.7655                 2.5505
 Frc consts  --      0.0200                 0.0186                 0.0402
 IR Inten    --      0.0053                 0.0036                 0.0008

                      7                      8                      9
                      A                      A                      A
 Frequencies --    207.9439               231.9073               245.9896
 Red. masses --      2.7048                 1.7984                 1.1233
 Frc consts  --      0.0689                 0.0570                 0.0400
 IR Inten    --      0.0020                 0.0050                 0.0019

                     10                     11                     12
                      A                      A                      A
 Frequencies --    257.5976               327.7883               357.3490
 Red. masses --      3.4601                 1.7677                 2.5786
 Frc consts  --      0.1353                 0.1119                 0.1940
 IR Inten    --      0.0326                 0.0053                 0.0178

                     13                     14                     15
                      A                      A                      A
 Frequencies --    421.7252               449.6996               462.3497
 Red. masses --      2.4802                 2.8087                 2.0355
 Frc consts  --      0.2599                 0.3347                 0.2564
 IR Inten    --      0.1189                 0.0148                 0.2831

                     16                     17                     18
                      A                      A                      A
 Frequencies --    488.7595               565.6513               732.7058
 Red. masses --      2.8784                 1.8054                 1.0801
 Frc consts  --      0.4051                 0.3403                 0.3417
 IR Inten    --      0.1845                 0.1999                 2.9429

                     19                     20                     21
                      A                      A                      A
 Frequencies --    753.4700               785.7349               794.7923
 Red. masses --      1.2404                 1.9236                 1.5693
 Frc consts  --      0.4149                 0.6997                 0.5841
 IR Inten    --      0.1682                 0.0102                 0.0040

                     22                     23                     24
                      A                      A                      A
 Frequencies --    836.1069               848.8623               890.2070
 Red. masses --      1.3533                 2.1682                 1.5360
 Frc consts  --      0.5574                 0.9205                 0.7172
 IR Inten    --      0.4796                 1.6404                 0.9190

                     25                     26                     27
                      A                      A                      A
 Frequencies --    898.5790               900.2678               925.9335
 Red. masses --      1.8788                 2.0177                 1.4974
 Frc consts  --      0.8938                 0.9635                 0.7564
 IR Inten    --      4.7883                 1.2929                 0.4979

                     28                     29                     30
                      A                      A                      A
 Frequencies --    969.4006               972.3885              1007.1772
 Red. masses --      1.7198                 1.5896                 3.5805
 Frc consts  --      0.9522                 0.8856                 2.1399
 IR Inten    --      0.2707                 1.3433                 0.1963

                     31                     32                     33
                      A                      A                      A
 Frequencies --   1039.1878              1043.1466              1054.2661
 Red. masses --      2.1339                 1.8529                 1.7155
 Frc consts  --      1.3577                 1.1880                 1.1234
 IR Inten    --      1.4240                 0.1198                 0.3271

                     34                     35                     36
                      A                      A                      A
 Frequencies --   1062.2158              1073.9636              1094.1624
 Red. masses --      2.2171                 1.4252                 1.1942
 Frc consts  --      1.4739                 0.9685                 0.8423
 IR Inten    --      0.1141                 0.6552                 1.7154

                     37                     38                     39
                      A                      A                      A
 Frequencies --   1098.1714              1113.6822              1133.5749
 Red. masses --      2.4695                 2.1126                 1.9581
 Frc consts  --      1.7547                 1.5438                 1.4824
 IR Inten    --      0.4756                 0.3642                 1.1147

                     40                     41                     42
                      A                      A                      A
 Frequencies --   1183.6416              1206.5638              1226.5381
 Red. masses --      2.2056                 1.5327                 1.5414
 Frc consts  --      1.8206                 1.3147                 1.3662
 IR Inten    --      0.1784                 0.3276                 0.7327

                     43                     44                     45
                      A                      A                      A
 Frequencies --   1262.2140              1276.8773              1288.7256
 Red. masses --      1.3105                 1.3245                 1.2015
 Frc consts  --      1.2301                 1.2723                 1.1757
 IR Inten    --      0.2653                 0.3151                 1.5787

                     46                     47                     48
                      A                      A                      A
 Frequencies --   1290.4852              1305.7874              1320.2660
 Red. masses --      1.2675                 1.2686                 1.2113
 Frc consts  --      1.2436                 1.2745                 1.2440
 IR Inten    --      1.7514                 0.8515                 0.1366

                     49                     50                     51
                      A                      A                      A
 Frequencies --   1330.7700              1333.6332              1345.0353
 Red. masses --      1.1825                 1.0734                 1.2710
 Frc consts  --      1.2339                 1.1248                 1.3547
 IR Inten    --      0.4202                 0.6576                 0.2205

                     52                     53                     54
                      A                      A                      A
 Frequencies --   1355.7622              1367.1421              1374.5977
 Red. masses --      1.2515                 1.3773                 1.3716
 Frc consts  --      1.3553                 1.5167                 1.5270
 IR Inten    --      0.9616                 0.0926                 0.1946

                     55                     56                     57
                      A                      A                      A
 Frequencies --   1378.4363              1381.1056              1394.3723
 Red. masses --      1.4796                 1.5136                 1.4896
 Frc consts  --      1.6564                 1.7011                 1.7063
 IR Inten    --      0.3478                 2.3584                 1.0288

                     58                     59                     60
                      A                      A                      A
 Frequencies --   1398.9527              1399.9827              1414.3410
 Red. masses --      1.5215                 1.5679                 1.2480
 Frc consts  --      1.7544                 1.8106                 1.4709
 IR Inten    --      0.1558                 0.3096                 2.8588

                     61                     62                     63
                      A                      A                      A
 Frequencies --   1480.7030              1486.0257              1487.5723
 Red. masses --      1.0835                 1.0835                 1.0806
 Frc consts  --      1.3996                 1.4098                 1.4089
 IR Inten    --      0.2079                 0.3276                 1.0081

                     64                     65                     66
                      A                      A                      A
 Frequencies --   1487.9275              1489.9245              1492.8868
 Red. masses --      1.0876                 1.0878                 1.0743
 Frc consts  --      1.4187                 1.4228                 1.4106
 IR Inten    --      2.8733                 3.6231                 3.6617

                     67                     68                     69
                      A                      A                      A
 Frequencies --   1495.0022              1500.1982              1503.3830
 Red. masses --      1.0762                 1.0397                 1.0819
 Frc consts  --      1.4172                 1.3787                 1.4407
 IR Inten    --      8.8446                 8.0968                 1.9813

                     70                     71                     72
                      A                      A                      A
 Frequencies --   1507.3826              1513.6920              2963.7947
 Red. masses --      1.0955                 1.0950                 1.0805
 Frc consts  --      1.4666                 1.4783                 5.5919
 IR Inten    --      0.4550                 9.5134                 5.3887

                     73                     74                     75
                      A                      A                      A
 Frequencies --   2986.8161              2986.8486              2992.2774
 Red. masses --      1.0611                 1.0688                 1.0594
 Frc consts  --      5.5774                 5.6177                 5.5885
 IR Inten    --      2.8642                15.2592                 1.4907

                     76                     77                     78
                      A                      A                      A
 Frequencies --   2994.8528              2996.4041              2999.5724
 Red. masses --      1.0702                 1.0674                 1.0636
 Frc consts  --      5.6554                 5.6466                 5.6383
 IR Inten    --      4.8696                22.3144                22.9346

                     79                     80                     81
                      A                      A                      A
 Frequencies --   3000.5055              3003.9937              3007.4605
 Red. masses --      1.0629                 1.0599                 1.0678
 Frc consts  --      5.6380                 5.6354                 5.6902
 IR Inten    --     10.9696                60.0433                87.3543

                     82                     83                     84
                      A                      A                      A
 Frequencies --   3012.5423              3017.0064              3017.3573
 Red. masses --      1.0893                 1.0933                 1.0403
 Frc consts  --      5.8245                 5.8631                 5.5801
 IR Inten    --     19.4973                 7.0356                54.6464

                     85                     86                     87
                      A                      A                      A
 Frequencies --   3033.2571              3039.3439              3043.7864
 Red. masses --      1.1026                 1.0966                 1.0988
 Frc consts  --      5.9771                 5.9682                 5.9981
 IR Inten    --      5.2250                46.1154                45.5421

                     88                     89                     90
                      A                      A                      A
 Frequencies --   3044.7983              3048.8656              3052.3084
 Red. masses --      1.0905                 1.1008                 1.1041
 Frc consts  --      5.9564                 6.0288                 6.0607
 IR Inten    --     77.5072                 6.0826               189.3997

                     91                     92                     93
                      A                      A                      A
 Frequencies --   3058.0933              3077.8151              3081.9557
 Red. masses --      1.0948                 1.1024                 1.1009
 Frc consts  --      6.0324                 6.1530                 6.1611
 IR Inten    --     55.7632                75.7682                46.4372

 - Thermochemistry -
 -------------------
 Temperature   298.150 Kelvin.  Pressure   1.00000 Atm.
 Atom     1 has atomic number  6 and mass  12.00000

 Molecular mass:   154.17215 amu.
 Principal axes and moments of inertia in atomic units:
                           1         2         3
     Eigenvalues --   541.370235318.502235665.24927
           X            1.00000  -0.00023  -0.00048
           Y            0.00023   0.99998   0.00584
           Z            0.00047  -0.00584   0.99998
 This molecule is an asymmetric top.
 Rotational symmetry number  1.
 Warning -- assumption of classical behavior for rotation
           may cause significant error
 Rotational temperatures (Kelvin)      0.15999     0.01629     0.01529
 Rotational constants (GHZ):           3.33365     0.33933     0.31856
 Zero-point vibrational energy     815706.0 (Joules/Mol)
                                  194.95841 (Kcal/Mol)
 Warning -- explicit consideration of  17 degrees of freedom as
           vibrations may cause significant error
 Vibrational temperatures:     70.88    77.93   106.55   167.33   192.37
          (Kelvin)            235.34   299.18   333.66   353.92   370.63
                              471.61   514.14   606.77   647.02   665.22
                              703.22   813.85  1054.20  1084.07  1130.50
                             1143.53  1202.97  1221.32  1280.81  1292.85
                             1295.28  1332.21  1394.75  1399.05  1449.10
                             1495.16  1500.85  1516.85  1528.29  1545.19
                             1574.25  1580.02  1602.34  1630.96  1702.99
                             1735.97  1764.71  1816.04  1837.14  1854.19
                             1856.72  1878.73  1899.57  1914.68  1918.80
                             1935.20  1950.64  1967.01  1977.74  1983.26
                             1987.10  2006.19  2012.78  2014.26  2034.92
                             2130.40  2138.06  2140.28  2140.79  2143.67
                             2147.93  2150.97  2158.45  2163.03  2168.78
                             2177.86  4264.23  4297.36  4297.40  4305.21
                             4308.92  4311.15  4315.71  4317.05  4322.07
                             4327.06  4334.37  4340.79  4341.30  4364.18
                             4372.93  4379.32  4380.78  4386.63  4391.59
                             4399.91  4428.28  4434.24

 Zero-point correction=                           0.310686 (Hartree/Particle)
 Thermal correction to Energy=                    0.323291
 Thermal correction to Enthalpy=                  0.324236
 Thermal correction to Gibbs Free Energy=         0.271434
 Sum of electronic and zero-point Energies=           -432.255634
 Sum of electronic and thermal Energies=              -432.243029
 Sum of electronic and thermal Enthalpies=            -432.242085
 Sum of electronic and thermal Free Energies=         -432.294886

                     E (Thermal)             CV                S
                      KCal/Mol        Cal/Mol-Kelvin    Cal/Mol-Kelvin
 Total                  202.868             48.070            111.131
 Electronic               0.000              0.000              0.000
 Translational            0.889              2.981             41.008
 Rotational               0.889              2.981             31.168
 Vibrational            201.091             42.108             38.955
 Vibration     1          0.595              1.978              4.847
 Vibration     2          0.596              1.976              4.659
 Vibration     3          0.599              1.966              4.043
 Vibration     4          0.608              1.936              3.161
 Vibration     5          0.613              1.920              2.892
 Vibration     6          0.623              1.887              2.508
 Vibration     7          0.641              1.829              2.062
 Vibration     8          0.653              1.792              1.864
 Vibration     9          0.660              1.769              1.759
 Vibration    10          0.667              1.750              1.678
 Vibration    11          0.711              1.620              1.271
 Vibration    12          0.733              1.560              1.134
 Vibration    13          0.784              1.423              0.886
 Vibration    14          0.809              1.362              0.797
 Vibration    15          0.820              1.334              0.759
 Vibration    16          0.845              1.275              0.687
 Vibration    17          0.922              1.106              0.513

 Optimization completed.
    -- Stationary point found.
 Normal termination of Gaussian 09 at Tue Apr 23 12:38:08 2024.
