 Gaussian 09, Revision D.01,
 Gaussian 09:  ES64L-G09RevD.01 24-Apr-2013

 ----------------------------------------------------------------------
 # opt=rcfc freq=noraman b3lyp/6-311+g(d,p) pop=(npa,hirshfeld,chelpg,m
 bs) geom=allcheck guess=read
 ----------------------------------------------------------------------

 Structure from the checkpoint file:  "65.chk"
 -------------------
 Title Card Required
 -------------------
 Charge =  0 Multiplicity = 1

 SCF Done:  E(RB3LYP) =  -558.590338537     A.U. after    1 cycles
 SCF Done:  E(RB3LYP) =  -558.590338545     A.U. after    7 cycles
 Optimization completed.
    -- Stationary point found.
 Normal termination of Gaussian 09 at Wed Apr 24 12:53:21 2024.

 ----------------------------------------------------------------------
 #N Geom=AllCheck Guess=TCheck SCRF=Check GenChk RB3LYP/6-311+G(d,p) Fr
 eq
 ----------------------------------------------------------------------

 Structure from the checkpoint file:  "65.chk"
 -------------------
 Title Card Required
 -------------------
 Charge =  0 Multiplicity = 1

                         Standard orientation:
 ---------------------------------------------------------------------
 Center     Atomic      Atomic             Coordinates (Angstroms)
 Number     Number       Type             X           Y           Z
 ---------------------------------------------------------------------
      1          6           0       -0.027235    0.610044   -0.044348
      2          8           0        0.280048    1.788516   -0.105117
      3          8           0        0.844190   -0.431363    0.026635
      4          6           0        2.301428   -0.211128    0.021267
      5          6           0        2.732072    0.452607   -1.289995
      6          1           0        2.334997    1.463290   -1.369943
      7          1           0        3.823928    0.498913   -1.332621
      8          1           0        2.384723   -0.134206   -2.144664
      9          6           0        2.851727   -1.635734    0.109706
     10          1           0        3.944331   -1.615552    0.112180
     11          1           0        2.511688   -2.123569    1.026075
     12          1           0        2.517904   -2.231050   -0.743283
     13          6           0        2.718175    0.604812    1.248392
     14          1           0        2.354522    0.127780    2.162479
     15          1           0        3.809625    0.650487    1.301296
     16          1           0        2.326126    1.619338    1.198755
     17          6           0       -1.729909   -1.246933    0.034381
     18          6           0       -2.437808    1.097948   -0.061393
     19          6           0       -3.239351   -1.169541   -0.237584
     20          1           0       -1.520187   -1.661707    1.027335
     21          1           0       -1.193209   -1.852130   -0.697608
     22          6           0       -3.633345    0.211742    0.312098
     23          1           0       -2.552553    1.532654   -1.061487
     24          1           0       -2.267371    1.919201    0.636281
     25          1           0       -3.426269   -1.211363   -1.315142
     26          1           0       -3.786653   -1.991349    0.227882
     27          1           0       -4.572659    0.586042   -0.098807
     28          1           0       -3.738557    0.166133    1.400561
     29          7           0       -1.308405    0.159567   -0.036653
 ---------------------------------------------------------------------

 SCF Done:  E(RB3LYP) =  -558.590338545     A.U. after    1 cycles

 The electronic state is 1-A.
 Alpha  occ. eigenvalues --  -19.14760 -19.08098 -14.33452 -10.30619 -10.24100
 Alpha  occ. eigenvalues --  -10.20809 -10.20420 -10.18081 -10.17971 -10.16186
 Alpha  occ. eigenvalues --  -10.15507 -10.15487  -1.09216  -1.00408  -0.94568
 Alpha  occ. eigenvalues --   -0.81700  -0.78819  -0.74266  -0.69412  -0.69173
 Alpha  occ. eigenvalues --   -0.66041  -0.60806  -0.58777  -0.54654  -0.50920
 Alpha  occ. eigenvalues --   -0.50660  -0.46796  -0.46224  -0.45060  -0.43823
 Alpha  occ. eigenvalues --   -0.43571  -0.42324  -0.41690  -0.40464  -0.39869
 Alpha  occ. eigenvalues --   -0.38934  -0.37660  -0.36752  -0.36569  -0.35936
 Alpha  occ. eigenvalues --   -0.35109  -0.34827  -0.34216  -0.33340  -0.29144
 Alpha  occ. eigenvalues --   -0.26522  -0.23981
 Alpha virt. eigenvalues --   -0.00236   0.00930   0.01795   0.02280   0.02866
 Alpha virt. eigenvalues --    0.03323   0.03560   0.04909   0.05050   0.05247
 Alpha virt. eigenvalues --    0.05806   0.05959   0.06621   0.06781   0.07028

 Mulliken charges:
               1
     1  C    0.255530
     2  O   -0.320894
     3  O    0.021989
     4  C   -0.240242
     5  C   -0.340456
     6  H    0.185847
     7  H    0.135903
     8  H    0.142802
     9  C   -0.450126
    10  H    0.144348
    11  H    0.154975
    12  H    0.154109
    13  C   -0.329641
    14  H    0.143028
    15  H    0.135477
    16  H    0.185673
    17  C   -0.145474
    18  C   -0.161507
    19  C   -0.406618
    20  H    0.156513
    21  H    0.168613
    22  C   -0.356159
    23  H    0.156529
    24  H    0.173712
    25  H    0.155601
    26  H    0.157115
    27  H    0.156657
    28  H    0.154622
    29  N   -0.187928
 Sum of Mulliken charges =   0.00000

 Dipole moment (field-independent basis, Debye):
    X=             -1.2262    Y=             -2.3951    Z=              0.1515  Tot=              2.6950
 Quadrupole moment (field-independent basis, Debye-Ang):
   XX=            -63.7961   YY=            -80.3541   ZZ=            -74.2303
   XY=             -0.6979   XZ=              0.0275   YZ=              0.4834

  Exact polarizability: 144.500   1.213 116.854   0.080  -0.549 100.515
 Approx polarizability: 171.265   4.490 171.102   0.270  -1.791 146.050

 ESP charges:
               1
     1  C    0.799974
     2  O   -0.622852
     3  O   -0.607638
     4  C    0.862403
     5  C   -0.400927
     6  H    0.108720
     7  H    0.065729
     8  H    0.079844
     9  C   -0.429427
    10  H    0.083051
    11  H    0.092144
    12  H    0.099049
    13  C   -0.386567
    14  H    0.075660
    15  H    0.062209
    16  H    0.108129
    17  C    0.096465
    18  C    0.062021
    19  C   -0.009196
    20  H    0.022951
    21  H    0.021202
    22  C    0.045065
    23  H    0.024804
    24  H    0.029733
    25  H    0.021711
    26  H    0.000456
    27  H   -0.005670
    28  H    0.008595
    29  N   -0.307637
 Sum of ESP charges =   0.00000

 Summary of Natural Population Analysis:

                                       Natural Population
                Natural  -----------------------------------------------
    Atom  No    Charge         Core      Valence    Rydberg      Total
 -----------------------------------------------------------------------
      C    1    0.93569      1.99929     3.01683    0.04819     5.06431
      O    2   -0.67258      1.99975     6.66282    0.01002     8.67258
      O    3   -0.60818      1.99970     6.58997    0.01851     8.60818
      C    4    0.27241      1.99911     3.70579    0.02269     5.72759
      C    5   -0.60515      1.99924     4.59471    0.01120     6.60515
      H    6    0.23300      0.00000     0.76547    0.00152     0.76700
      H    7    0.20336      0.00000     0.79535    0.00129     0.79664
      H    8    0.20336      0.00000     0.79523    0.00141     0.79664
      C    9   -0.57968      1.99924     4.56849    0.01195     6.57968
      H   10    0.20341      0.00000     0.79540    0.00119     0.79659
      H   11    0.20735      0.00000     0.79118    0.00147     0.79265
      H   12    0.20691      0.00000     0.79162    0.00147     0.79309
      C   13   -0.60501      1.99924     4.59455    0.01123     6.60501
      H   14    0.20361      0.00000     0.79499    0.00140     0.79639
      H   15    0.20308      0.00000     0.79562    0.00130     0.79692
      H   16    0.23307      0.00000     0.76540    0.00153     0.76693
      C   17   -0.16108      1.99931     4.14556    0.01620     6.16108
      C   18   -0.16019      1.99932     4.14379    0.01709     6.16019
      C   19   -0.39357      1.99930     4.38113    0.01315     6.39357
      H   20    0.18735      0.00000     0.81053    0.00213     0.81265
      H   21    0.20598      0.00000     0.79209    0.00193     0.79402
      C   22   -0.39416      1.99930     4.38178    0.01307     6.39416
      H   23    0.18880      0.00000     0.80922    0.00198     0.81120
      H   24    0.21153      0.00000     0.78646    0.00201     0.78847
      H   25    0.19740      0.00000     0.80082    0.00179     0.80260
      H   26    0.20843      0.00000     0.78995    0.00162     0.79157
      H   27    0.20908      0.00000     0.78934    0.00157     0.79092
      H   28    0.19725      0.00000     0.80098    0.00176     0.80275
      N   29   -0.53148      1.99927     5.51203    0.02018     7.53148
 =======================================================================
   * Total *    0.00000     23.99206    69.76709    0.24085    94.00000

                      1                      2                      3
                      A                      A                      A
 Frequencies --     38.8570                67.3375                85.3827
 Red. masses --      3.1967                 2.7004                 3.3150
 Frc consts  --      0.0028                 0.0072                 0.0142
 IR Inten    --      1.7278                 0.1746                 1.3678

                      4                      5                      6
                      A                      A                      A
 Frequencies --    115.9521               140.1357               178.7523
 Red. masses --      3.7321                 3.5878                 2.7048
 Frc consts  --      0.0296                 0.0415                 0.0509
 IR Inten    --      1.7744                 0.4322                 2.0667

                      7                      8                      9
                      A                      A                      A
 Frequencies --    204.3366               230.4645               248.6094
 Red. masses --      1.1211                 3.6553                 1.0462
 Frc consts  --      0.0276                 0.1144                 0.0381
 IR Inten    --      0.1699                 4.2502                 0.0372

                     10                     11                     12
                      A                      A                      A
 Frequencies --    250.1685               269.8280               304.3027
 Red. masses --      1.6008                 1.0707                 2.9750
 Frc consts  --      0.0590                 0.0459                 0.1623
 IR Inten    --      0.0542                 0.0438                 0.0831

                     13                     14                     15
                      A                      A                      A
 Frequencies --    332.9484               349.2529               410.3768
 Red. masses --      4.0843                 2.5112                 2.8554
 Frc consts  --      0.2668                 0.1805                 0.2833
 IR Inten    --     13.1257                 1.1716                 2.2484

                     16                     17                     18
                      A                      A                      A
 Frequencies --    458.3977               475.8708               537.1827
 Red. masses --      2.9087                 2.6998                 4.1663
 Frc consts  --      0.3601                 0.3602                 0.7083
 IR Inten    --      2.7204                 0.7179                10.0330

                     19                     20                     21
                      A                      A                      A
 Frequencies --    581.3715               722.0174               764.3158
 Red. masses --      1.8219                 3.2246                 3.6711
 Frc consts  --      0.3628                 0.9904                 1.2635
 IR Inten    --      2.0001                 0.9286                 2.0383

                     22                     23                     24
                      A                      A                      A
 Frequencies --    777.0455               829.4265               857.6213
 Red. masses --     11.1807                 2.7393                 2.6449
 Frc consts  --      3.9775                 1.1103                 1.1462
 IR Inten    --     21.1328                 1.7407                10.8039

                     25                     26                     27
                      A                      A                      A
 Frequencies --    876.5276               881.5841               917.7348
 Red. masses --      2.4374                 2.4117                 2.4316
 Frc consts  --      1.1033                 1.1043                 1.2067
 IR Inten    --     24.1196                11.5092                 8.9765

                     28                     29                     30
                      A                      A                      A
 Frequencies --    922.9056               924.9006               935.6303
 Red. masses --      1.6497                 1.6502                 1.4339
 Frc consts  --      0.8279                 0.8317                 0.7395
 IR Inten    --      0.0447                 0.2400                 1.8085

                     31                     32                     33
                      A                      A                      A
 Frequencies --    968.7119               979.7419              1033.5912
 Red. masses --      1.2005                 1.6293                 2.0412
 Frc consts  --      0.6638                 0.9214                 1.2848
 IR Inten    --      0.1042                 8.1887                 5.9515

                     34                     35                     36
                      A                      A                      A
 Frequencies --   1050.5299              1055.9373              1116.7663
 Red. masses --      1.4072                 1.4335                 3.3612
 Frc consts  --      0.9150                 0.9417                 2.4699
 IR Inten    --      0.5432                 0.3142               219.1489

                     37                     38                     39
                      A                      A                      A
 Frequencies --   1146.8082              1186.3332              1190.1783
 Red. masses --      1.8204                 1.5107                 1.7117
 Frc consts  --      1.4106                 1.2527                 1.4286
 IR Inten    --     59.5044                 4.2552               215.5249

                     40                     41                     42
                      A                      A                      A
 Frequencies --   1209.0677              1220.0681              1250.6434
 Red. masses --      1.8566                 2.6143                 1.2465
 Frc consts  --      1.5991                 2.2928                 1.1487
 IR Inten    --     24.2496                11.5732                22.2110

                     43                     44                     45
                      A                      A                      A
 Frequencies --   1263.4790              1275.1573              1278.3314
 Red. masses --      2.7363                 1.8842                 1.8029
 Frc consts  --      2.5736                 1.8052                 1.7358
 IR Inten    --     15.4746                 4.2612                34.0470

                     46                     47                     48
                      A                      A                      A
 Frequencies --   1323.6022              1344.5994              1366.7902
 Red. masses --      1.3445                 1.2514                 1.4950
 Frc consts  --      1.3878                 1.3330                 1.6454
 IR Inten    --      0.9736                 1.0199                16.0121

                     49                     50                     51
                      A                      A                      A
 Frequencies --   1380.0783              1396.6386              1397.8204
 Red. masses --      1.5189                 1.2733                 1.2952
 Frc consts  --      1.7045                 1.4634                 1.4910
 IR Inten    --     20.2736                22.3218                21.0861

                     52                     53                     54
                      A                      A                      A
 Frequencies --   1417.5859              1424.4213              1469.2815
 Red. masses --      7.3802                 1.2365                 1.0455
 Frc consts  --      8.7381                 1.4782                 1.3298
 IR Inten    --    553.7047                33.9809                 0.2419

                     55                     56                     57
                      A                      A                      A
 Frequencies --   1490.9291              1491.0459              1492.5022
 Red. masses --      1.0475                 1.0501                 1.0892
 Frc consts  --      1.3719                 1.3755                 1.4296
 IR Inten    --      1.1167                 1.3939                 4.9465

                     58                     59                     60
                      A                      A                      A
 Frequencies --   1495.4257              1500.6893              1505.0978
 Red. masses --      1.0660                 1.0989                 1.0523
 Frc consts  --      1.4045                 1.4581                 1.4046
 IR Inten    --     19.3359                 3.5144                 2.1503

                     61                     62                     63
                      A                      A                      A
 Frequencies --   1524.8244              1527.0474              1535.8827
 Red. masses --      1.0799                 1.0578                 1.0953
 Frc consts  --      1.4793                 1.4533                 1.5223
 IR Inten    --      1.0204                26.6142                 3.3526

                     64                     65                     66
                      A                      A                      A
 Frequencies --   1740.6843              3009.8570              3012.4324
 Red. masses --     11.1439                 1.0716                 1.0734
 Frc consts  --     19.8943                 5.7196                 5.7392
 IR Inten    --    467.8607                78.3361                 4.0520

                     67                     68                     69
                      A                      A                      A
 Frequencies --   3031.6979              3032.3686              3034.8940
 Red. masses --      1.0359                 1.0371                 1.0688
 Frc consts  --      5.6097                 5.6184                 5.8002
 IR Inten    --     14.3307                24.0817                16.8023

                     70                     71                     72
                      A                      A                      A
 Frequencies --   3040.2029              3041.1608              3085.4369
 Red. masses --      1.0375                 1.0616                 1.0921
 Frc consts  --      5.6501                 5.7849                 6.1257
 IR Inten    --     25.7959                32.0510                31.7694

                     73                     74                     75
                      A                      A                      A
 Frequencies --   3088.6720              3090.8334              3092.4018
 Red. masses --      1.0912                 1.1018                 1.0984
 Frc consts  --      6.1331                 6.2016                 6.1885
 IR Inten    --     20.8777                 9.1928                24.8590

                     76                     77                     78
                      A                      A                      A
 Frequencies --   3093.2026              3100.3452              3106.0277
 Red. masses --      1.1016                 1.1050                 1.1026
 Frc consts  --      6.2098                 6.2582                 6.2674
 IR Inten    --     16.2866                48.3439                34.5617

                     79                     80                     81
                      A                      A                      A
 Frequencies --   3106.9205              3137.7136              3140.6779
 Red. masses --      1.1017                 1.0996                 1.0989
 Frc consts  --      6.2656                 6.3782                 6.3864
 IR Inten    --     51.1398                 0.4675                11.5837

 - Thermochemistry -
 -------------------
 Temperature   298.150 Kelvin.  Pressure   1.00000 Atm.
 Atom     1 has atomic number  6 and mass  12.00000

 Molecular mass:   171.12593 amu.
 Principal axes and moments of inertia in atomic units:
                           1         2         3
     Eigenvalues --   892.582743536.014903959.72054
           X            1.00000  -0.00132  -0.00003
           Y            0.00132   0.99999   0.00389
           Z            0.00002  -0.00389   0.99999
 This molecule is an asymmetric top.
 Rotational symmetry number  1.
 Warning -- assumption of classical behavior for rotation
           may cause significant error
 Rotational temperatures (Kelvin)      0.09704     0.02449     0.02187
 Rotational constants (GHZ):           2.02193     0.51039     0.45577
 Zero-point vibrational energy     669815.3 (Joules/Mol)
                                  160.08970 (Kcal/Mol)
 Warning -- explicit consideration of  19 degrees of freedom as
           vibrations may cause significant error
 Vibrational temperatures:     55.91    96.88   122.85   166.83   201.62
          (Kelvin)            257.18   293.99   331.59   357.69   359.94
                              388.22   437.82   479.04   502.50   590.44
                              659.53   684.67   772.89   836.46  1038.82
                             1099.68  1117.99  1193.36  1233.92  1261.13
                             1268.40  1320.41  1327.85  1330.72  1346.16
                             1393.76  1409.63  1487.11  1511.48  1519.26
                             1606.78  1650.00  1706.87  1712.40  1739.58
                             1755.40  1799.39  1817.86  1834.66  1839.23
                             1904.37  1934.58  1966.50  1985.62  2009.45
                             2011.15  2039.59  2049.42  2113.97  2145.11
                             2145.28  2147.38  2151.58  2159.15  2165.50
                             2193.88  2197.08  2209.79  2504.45  4330.51
                             4334.21  4361.93  4362.90  4366.53  4374.17
                             4375.55  4439.25  4443.90  4447.01  4449.27
                             4450.42  4460.70  4468.88  4470.16  4514.46
                             4518.73

 Zero-point correction=                           0.255119 (Hartree/Particle)
 Thermal correction to Energy=                    0.268336
 Thermal correction to Enthalpy=                  0.269280
 Thermal correction to Gibbs Free Energy=         0.215504
 Sum of electronic and zero-point Energies=           -558.335219
 Sum of electronic and thermal Energies=              -558.322003
 Sum of electronic and thermal Enthalpies=            -558.321059
 Sum of electronic and thermal Free Energies=         -558.374834

                     E (Thermal)             CV                S
                      KCal/Mol        Cal/Mol-Kelvin    Cal/Mol-Kelvin
 Total                  168.383             49.404            113.181
 Electronic               0.000              0.000              0.000
 Translational            0.889              2.981             41.319
 Rotational               0.889              2.981             30.903
 Vibrational            166.606             43.442             40.958
 Vibration     1          0.594              1.981              5.317
 Vibration     2          0.598              1.970              4.230
 Vibration     3          0.601              1.959              3.763
 Vibration     4          0.608              1.936              3.167
 Vibration     5          0.615              1.913              2.802
 Vibration     6          0.629              1.868              2.341
 Vibration     7          0.640              1.834              2.094
 Vibration     8          0.652              1.794              1.875
 Vibration     9          0.662              1.765              1.740
 Vibration    10          0.663              1.762              1.729
 Vibration    11          0.674              1.729              1.597
 Vibration    12          0.695              1.666              1.393
 Vibration    13          0.715              1.610              1.246
 Vibration    14          0.727              1.577              1.170
 Vibration    15          0.775              1.448              0.925
 Vibration    16          0.816              1.342              0.771
 Vibration    17          0.833              1.304              0.721
 Vibration    18          0.892              1.168              0.571
 Vibration    19          0.938              1.072              0.483

 Optimization completed.
    -- Stationary point found.
 Normal termination of Gaussian 09 at Wed Apr 24 12:58:36 2024.
