 Gaussian 09, Revision D.01,
 Gaussian 09:  ES64L-G09RevD.01 24-Apr-2013

 ----------------------------------------------------------------------
 # opt freq=noraman b3lyp/6-311+g(d,p) pop=(npa,hirshfeld,chelpg,mbs) g
 eom=connectivity
 ----------------------------------------------------------------------

 -------------------
 Title Card Required
 -------------------
 Symbolic Z-matrix:
 Charge =  0 Multiplicity = 1

 SCF Done:  E(RB3LYP) =  -741.753930219     A.U. after   13 cycles
 SCF Done:  E(RB3LYP) =  -741.771603409     A.U. after   12 cycles
 SCF Done:  E(RB3LYP) =  -741.777491867     A.U. after   12 cycles
 SCF Done:  E(RB3LYP) =  -741.779340886     A.U. after   12 cycles
 SCF Done:  E(RB3LYP) =  -741.783626070     A.U. after   12 cycles
 SCF Done:  E(RB3LYP) =  -741.793538906     A.U. after   13 cycles
 SCF Done:  E(RB3LYP) =  -741.800872677     A.U. after   13 cycles
 SCF Done:  E(RB3LYP) =  -741.804095007     A.U. after   12 cycles
 SCF Done:  E(RB3LYP) =  -741.805470997     A.U. after   12 cycles
 SCF Done:  E(RB3LYP) =  -741.808564298     A.U. after   12 cycles
 SCF Done:  E(RB3LYP) =  -741.814448354     A.U. after   10 cycles
 SCF Done:  E(RB3LYP) =  -741.814494118     A.U. after    9 cycles
 SCF Done:  E(RB3LYP) =  -741.814521192     A.U. after    9 cycles
 SCF Done:  E(RB3LYP) =  -741.814540755     A.U. after    9 cycles
 SCF Done:  E(RB3LYP) =  -741.814543075     A.U. after    8 cycles
 SCF Done:  E(RB3LYP) =  -741.814543921     A.U. after    8 cycles
 SCF Done:  E(RB3LYP) =  -741.814544014     A.U. after    7 cycles
 SCF Done:  E(RB3LYP) =  -741.814544003     A.U. after    7 cycles
 SCF Done:  E(RB3LYP) =  -741.814543957     A.U. after    7 cycles
 Optimization completed.
    -- Stationary point found.
 Normal termination of Gaussian 09 at Tue Apr 23 13:44:21 2024.

 ----------------------------------------------------------------------
 #N Geom=AllCheck Guess=TCheck SCRF=Check GenChk RB3LYP/6-311+G(d,p) Fr
 eq
 ----------------------------------------------------------------------

 Structure from the checkpoint file:  "68.chk"
 -------------------
 Title Card Required
 -------------------
 Charge =  0 Multiplicity = 1

                         Standard orientation:
 ---------------------------------------------------------------------
 Center     Atomic      Atomic             Coordinates (Angstroms)
 Number     Number       Type             X           Y           Z
 ---------------------------------------------------------------------
      1          6           0        3.139693   -0.058652    0.358054
      2          6           0        2.468751    1.319911    0.256252
      3          6           0        1.344980    1.430376   -0.777473
      4          6           0        2.213244   -1.168283    0.889725
      5          6           0        1.296317   -1.847267   -0.142152
      6          6           0        0.541418   -0.910183   -1.113234
      7          1           0        3.560791   -0.348812   -0.613901
      8          1           0        2.072427    1.600132    1.238248
      9          1           0        1.744334    1.283497   -1.786330
     10          1           0        1.601486   -0.752081    1.697964
     11          1           0        0.572972   -2.462670    0.398186
     12          1           0        3.993148    0.036194    1.036815
     13          1           0        3.220124    2.074970   -0.001752
     14          1           0        0.893912    2.420490   -0.730851
     15          1           0        2.819059   -1.954475    1.351142
     16          1           0        1.886733   -2.534660   -0.758503
     17          1           0       -0.384879   -1.379483   -1.438240
     18          1           0        1.136969   -0.759406   -2.016633
     19          6           0       -0.863974    0.860517    0.024457
     20          8           0       -1.038026    1.971998    0.487542
     21          6           0       -2.044594   -0.156707    0.127147
     22          9           0       -1.678036   -1.307789    0.743890
     23          9           0       -2.519943   -0.492132   -1.098110
     24          9           0       -3.051118    0.365276    0.819835
     25          7           0        0.264856    0.441979   -0.600524
 ---------------------------------------------------------------------

 SCF Done:  E(RB3LYP) =  -741.814543957     A.U. after    1 cycles

 The electronic state is 1-A.
 Alpha  occ. eigenvalues --  -24.72791 -24.72703 -24.72373 -19.11621 -14.37154
 Alpha  occ. eigenvalues --  -10.44190 -10.30541 -10.22845 -10.21964 -10.18490
 Alpha  occ. eigenvalues --  -10.18324 -10.18206 -10.18091  -1.33451  -1.24610
 Alpha  occ. eigenvalues --   -1.24483  -1.07109  -0.96545  -0.82170  -0.79807
 Alpha  occ. eigenvalues --   -0.76180  -0.71931  -0.69012  -0.65760  -0.62145
 Alpha  occ. eigenvalues --   -0.61324  -0.60811  -0.58321  -0.54642  -0.50206
 Alpha  occ. eigenvalues --   -0.49691  -0.49240  -0.48812  -0.48222  -0.46763
 Alpha  occ. eigenvalues --   -0.45679  -0.45060  -0.44302  -0.43508  -0.43111
 Alpha  occ. eigenvalues --   -0.42899  -0.42263  -0.40205  -0.39029  -0.37739
 Alpha  occ. eigenvalues --   -0.36308  -0.34879  -0.34006  -0.33445  -0.28862
 Alpha  occ. eigenvalues --   -0.26980
 Alpha virt. eigenvalues --   -0.02929  -0.00697   0.00669   0.00882   0.01661
 Alpha virt. eigenvalues --    0.03233   0.03476   0.04210   0.04248   0.04931
 Alpha virt. eigenvalues --    0.06633   0.06776   0.07254   0.07648   0.07745

 Mulliken charges:
               1
     1  C   -0.296361
     2  C   -0.181379
     3  C   -0.348256
     4  C   -0.228254
     5  C   -0.280646
     6  C   -0.428101
     7  H    0.140802
     8  H    0.167612
     9  H    0.150774
    10  H    0.149810
    11  H    0.173077
    12  H    0.146511
    13  H    0.146653
    14  H    0.191189
    15  H    0.146379
    16  H    0.151169
    17  H    0.187162
    18  H    0.154630
    19  C    0.047471
    20  O   -0.290848
    21  C    0.341681
    22  F   -0.109418
    23  F   -0.110116
    24  F   -0.109219
    25  N    0.087679
 Sum of Mulliken charges =   0.00000

 Dipole moment (field-independent basis, Debye):
    X=              4.1373    Y=             -1.8760    Z=             -1.6796  Tot=              4.8433
 Quadrupole moment (field-independent basis, Debye-Ang):
   XX=            -78.8611   YY=            -80.9066   ZZ=            -76.1165
   XY=              3.1926   XZ=              0.5028   YZ=             -1.9239

  Exact polarizability: 114.770  -3.837 106.638  -2.545   3.661  89.473
 Approx polarizability: 147.324  -9.949 152.356 -10.457  11.635 137.223

 ESP charges:
               1
     1  C    0.101753
     2  C    0.025787
     3  C    0.189291
     4  C   -0.028475
     5  C    0.166046
     6  C   -0.054549
     7  H   -0.035364
     8  H    0.013978
     9  H   -0.011033
    10  H   -0.006826
    11  H   -0.027115
    12  H   -0.020780
    13  H   -0.024434
    14  H    0.026964
    15  H   -0.001832
    16  H   -0.035770
    17  H    0.042620
    18  H    0.078635
    19  C    0.462752
    20  O   -0.515678
    21  C    0.649517
    22  F   -0.217863
    23  F   -0.234940
    24  F   -0.227536
    25  N   -0.315149
 Sum of ESP charges =   0.00000

 Summary of Natural Population Analysis:

                                       Natural Population
                Natural  -----------------------------------------------
    Atom  No    Charge         Core      Valence    Rydberg      Total
 -----------------------------------------------------------------------
      C    1   -0.39173      1.99928     4.37734    0.01512     6.39173
      C    2   -0.39256      1.99926     4.37960    0.01370     6.39256
      C    3   -0.17312      1.99923     4.15478    0.01911     6.17312
      C    4   -0.38982      1.99928     4.37532    0.01523     6.38982
      C    5   -0.39446      1.99927     4.38086    0.01433     6.39446
      C    6   -0.17992      1.99924     4.16288    0.01780     6.17992
      H    7    0.18946      0.00000     0.80850    0.00204     0.81054
      H    8    0.20472      0.00000     0.79321    0.00207     0.79528
      H    9    0.18881      0.00000     0.80946    0.00173     0.81119
      H   10    0.19728      0.00000     0.80075    0.00197     0.80272
      H   11    0.21005      0.00000     0.78815    0.00180     0.78995
      H   12    0.20692      0.00000     0.79158    0.00150     0.79308
      H   13    0.20627      0.00000     0.79209    0.00164     0.79373
      H   14    0.23201      0.00000     0.76568    0.00230     0.76799
      H   15    0.20634      0.00000     0.79218    0.00148     0.79366
      H   16    0.19797      0.00000     0.80017    0.00186     0.80203
      H   17    0.21856      0.00000     0.77942    0.00202     0.78144
      H   18    0.19657      0.00000     0.80160    0.00183     0.80343
      C   19    0.59922      1.99922     3.35732    0.04424     5.40078
      O   20   -0.59225      1.99976     6.57930    0.01319     8.59225
      C   21    1.00527      1.99945     2.93581    0.05948     4.99473
      F   22   -0.36187      1.99992     7.35292    0.00903     9.36187
      F   23   -0.35744      1.99992     7.35065    0.00686     9.35744
      F   24   -0.32832      1.99991     7.32029    0.00812     9.32832
      N   25   -0.49793      1.99928     5.47242    0.02623     7.49793
 =======================================================================
   * Total *    0.00000     25.99302    75.72230    0.28468   102.00000

                      1                      2                      3
                      A                      A                      A
 Frequencies --     48.5964                57.7473                69.8329
 Red. masses --      3.9263                 7.0509                10.4741
 Frc consts  --      0.0055                 0.0139                 0.0301
 IR Inten    --      0.2155                 0.0401                 2.3341

                      4                      5                      6
                      A                      A                      A
 Frequencies --    110.5373               170.0074               203.5782
 Red. masses --      3.3350                 2.1677                 5.4585
 Frc consts  --      0.0240                 0.0369                 0.1333
 IR Inten    --      0.1828                 0.0150                 3.1187

                      7                      8                      9
                      A                      A                      A
 Frequencies --    242.6178               280.5293               315.6799
 Red. masses --      9.6891                 2.6451                 3.0153
 Frc consts  --      0.3360                 0.1226                 0.1770
 IR Inten    --      1.3929                 1.9069                 0.4516

                     10                     11                     12
                      A                      A                      A
 Frequencies --    333.4469               348.0964               388.2558
 Red. masses --      3.6697                 4.0978                 4.5219
 Frc consts  --      0.2404                 0.2925                 0.4016
 IR Inten    --      0.9343                 1.6814                 2.0995

                     13                     14                     15
                      A                      A                      A
 Frequencies --    426.7359               450.3562               508.2067
 Red. masses --      3.7573                 2.7512                 2.3981
 Frc consts  --      0.4031                 0.3288                 0.3649
 IR Inten    --      8.6979                 0.4371                 0.5468

                     16                     17                     18
                      A                      A                      A
 Frequencies --    521.5047               531.0093               597.8582
 Red. masses --      3.5968                 8.3020                 5.0901
 Frc consts  --      0.5763                 1.3792                 1.0719
 IR Inten    --      1.1950                 4.9086                 4.7352

                     19                     20                     21
                      A                      A                      A
 Frequencies --    678.9128               736.5920               751.1618
 Red. masses --      4.0353                 5.8043                 1.3048
 Frc consts  --      1.0959                 1.8555                 0.4338
 IR Inten    --     16.8846                 9.9678                 5.0790

                     22                     23                     24
                      A                      A                      A
 Frequencies --    759.7011               768.7723               848.8339
 Red. masses --      9.7380                 3.1300                 2.8209
 Frc consts  --      3.3114                 1.0899                 1.1975
 IR Inten    --     15.1923                 5.2606                 4.0111

                     25                     26                     27
                      A                      A                      A
 Frequencies --    865.8936               897.1045               918.3243
 Red. masses --      1.6357                 2.8398                 1.8896
 Frc consts  --      0.7226                 1.3466                 0.9389
 IR Inten    --      2.3272                 7.5082                16.2457

                     28                     29                     30
                      A                      A                      A
 Frequencies --    985.2465              1003.5330              1021.4475
 Red. masses --      2.1546                 2.6688                 1.5889
 Frc consts  --      1.2323                 1.5835                 0.9768
 IR Inten    --      6.5495                 4.3975                21.2776

                     31                     32                     33
                      A                      A                      A
 Frequencies --   1056.5234              1104.8081              1113.3301
 Red. masses --      2.1528                10.6417                 2.4533
 Frc consts  --      1.4159                 7.6531                 1.7917
 IR Inten    --      6.4185               254.7394                18.4017

                     34                     35                     36
                      A                      A                      A
 Frequencies --   1123.2950              1153.1091              1182.8436
 Red. masses --      2.0557                 3.6090                 2.4559
 Frc consts  --      1.5283                 2.8273                 2.0245
 IR Inten    --      9.1130               165.0898               139.8408

                     37                     38                     39
                      A                      A                      A
 Frequencies --   1207.6253              1218.3762              1256.0419
 Red. masses --      2.6460                 1.6740                 1.7270
 Frc consts  --      2.2735                 1.4641                 1.6053
 IR Inten    --    236.2383                 9.7633                44.2619

                     40                     41                     42
                      A                      A                      A
 Frequencies --   1276.0234              1300.1500              1317.9796
 Red. masses --      1.2625                 1.4642                 1.2238
 Frc consts  --      1.2111                 1.4582                 1.2525
 IR Inten    --      0.9302                16.5872                11.0572

                     43                     44                     45
                      A                      A                      A
 Frequencies --   1330.9235              1366.5066              1375.3432
 Red. masses --      1.6128                 1.2687                 1.3431
 Frc consts  --      1.6832                 1.3958                 1.4969
 IR Inten    --      1.6774                 1.4169                 2.5096

                     46                     47                     48
                      A                      A                      A
 Frequencies --   1386.2779              1393.3377              1401.7622
 Red. masses --      1.4245                 1.3717                 1.3466
 Frc consts  --      1.6129                 1.5690                 1.5590
 IR Inten    --      1.0190                 2.8717                 1.1947

                     49                     50                     51
                      A                      A                      A
 Frequencies --   1413.1234              1469.8725              1481.9197
 Red. masses --      1.3146                 1.9427                 1.0991
 Frc consts  --      1.5467                 2.4729                 1.4222
 IR Inten    --     16.1944                74.1953                 5.6378

                     52                     53                     54
                      A                      A                      A
 Frequencies --   1485.6537              1492.6160              1495.6587
 Red. masses --      1.1903                 1.0917                 1.0925
 Frc consts  --      1.5479                 1.4330                 1.4399
 IR Inten    --      8.7321                 8.3164                 4.7742

                     55                     56                     57
                      A                      A                      A
 Frequencies --   1501.8313              1527.4238              1748.4241
 Red. masses --      1.0907                 1.1559                11.1913
 Frc consts  --      1.4494                 1.5888                20.1569
 IR Inten    --      7.3129                13.5215               436.9823

                     58                     59                     60
                      A                      A                      A
 Frequencies --   3000.5046              3019.4483              3020.2325
 Red. masses --      1.0686                 1.0625                 1.0641
 Frc consts  --      5.6683                 5.7071                 5.7188
 IR Inten    --     21.5583                19.9965                23.3574

                     61                     62                     63
                      A                      A                      A
 Frequencies --   3023.1272              3030.5651              3049.6021
 Red. masses --      1.0680                 1.0725                 1.0960
 Frc consts  --      5.7508                 5.8035                 6.0056
 IR Inten    --     13.8532                 9.9408                43.9706

                     64                     65                     66
                      A                      A                      A
 Frequencies --   3056.5131              3058.0483              3063.0186
 Red. masses --      1.0778                 1.0920                 1.0967
 Frc consts  --      5.9323                 6.0169                 6.0623
 IR Inten    --     10.5743                56.0753                58.6343

                     67                     68                     69
                      A                      A                      A
 Frequencies --   3079.7029              3122.3018              3133.5918
 Red. masses --      1.0941                 1.0955                 1.0944
 Frc consts  --      6.1139                 6.2925                 6.3315
 IR Inten    --     46.7510                 5.1024                 7.9542

 - Thermochemistry -
 -------------------
 Temperature   298.150 Kelvin.  Pressure   1.00000 Atm.
 Atom     1 has atomic number  6 and mass  12.00000

 Molecular mass:   195.08710 amu.
 Principal axes and moments of inertia in atomic units:
                           1         2         3
     Eigenvalues --  1315.646013180.348933726.05764
           X            0.99996  -0.00465   0.00737
           Y            0.00471   0.99996  -0.00751
           Z           -0.00733   0.00755   0.99994
 This molecule is an asymmetric top.
 Rotational symmetry number  1.
 Warning -- assumption of classical behavior for rotation
           may cause significant error
 Rotational temperatures (Kelvin)      0.06583     0.02723     0.02325
 Rotational constants (GHZ):           1.37175     0.56747     0.48436
 Zero-point vibrational energy     530409.6 (Joules/Mol)
                                  126.77093 (Kcal/Mol)
 Warning -- explicit consideration of  18 degrees of freedom as
           vibrations may cause significant error
 Vibrational temperatures:     69.92    83.09   100.47   159.04   244.60
          (Kelvin)            292.90   349.07   403.62   454.19   479.76
                              500.83   558.61   613.98   647.96   731.20
                              750.33   764.00   860.18   976.80  1059.79
                             1080.75  1093.04  1106.09  1221.28  1245.83
                             1290.73  1321.26  1417.55  1443.86  1469.63
                             1520.10  1589.57  1601.83  1616.17  1659.06
                             1701.85  1737.50  1752.97  1807.16  1835.91
                             1870.62  1896.28  1914.90  1966.10  1978.81
                             1994.54  2004.70  2016.82  2033.17  2114.82
                             2132.15  2137.52  2147.54  2151.92  2160.80
                             2197.62  2515.59  4317.05  4344.31  4345.44
                             4349.60  4360.30  4387.69  4397.64  4399.84
                             4407.00  4431.00  4492.29  4508.53

 Zero-point correction=                           0.202022 (Hartree/Particle)
 Thermal correction to Energy=                    0.214075
 Thermal correction to Enthalpy=                  0.215019
 Thermal correction to Gibbs Free Energy=         0.163143
 Sum of electronic and zero-point Energies=           -741.612522
 Sum of electronic and thermal Energies=              -741.600469
 Sum of electronic and thermal Enthalpies=            -741.599525
 Sum of electronic and thermal Free Energies=         -741.651401

                     E (Thermal)             CV                S
                      KCal/Mol        Cal/Mol-Kelvin    Cal/Mol-Kelvin
 Total                  134.334             45.737            109.181
 Electronic               0.000              0.000              0.000
 Translational            0.889              2.981             41.710
 Rotational               0.889              2.981             31.123
 Vibrational            132.556             39.776             36.349
 Vibration     1          0.595              1.978              4.874
 Vibration     2          0.596              1.974              4.533
 Vibration     3          0.598              1.969              4.158
 Vibration     4          0.606              1.941              3.259
 Vibration     5          0.625              1.879              2.435
 Vibration     6          0.639              1.835              2.101
 Vibration     7          0.659              1.775              1.784
 Vibration     8          0.680              1.710              1.530
 Vibration     9          0.703              1.644              1.332
 Vibration    10          0.715              1.609              1.243
 Vibration    11          0.726              1.579              1.175
 Vibration    12          0.756              1.495              1.007
 Vibration    13          0.788              1.412              0.869
 Vibration    14          0.809              1.360              0.795
 Vibration    15          0.863              1.232              0.638
 Vibration    16          0.876              1.202              0.606
 Vibration    17          0.886              1.181              0.585
 Vibration    18          0.956              1.036              0.453

 Optimization completed.
    -- Stationary point found.
 Normal termination of Gaussian 09 at Tue Apr 23 13:48:53 2024.
