 Gaussian 09, Revision D.01,
 Gaussian 09:  ES64L-G09RevD.01 24-Apr-2013

 ----------------------------------------------------------------------
 # opt freq=noraman b3lyp/6-311+g(d,p) pop=(npa,hirshfeld,chelpg,mbs) g
 eom=connectivity
 ----------------------------------------------------------------------

 -------------------
 Title Card Required
 -------------------
 Symbolic Z-matrix:
 Charge =  0 Multiplicity = 1

 SCF Done:  E(RB3LYP) =  -522.610605539     A.U. after   13 cycles
 SCF Done:  E(RB3LYP) =  -522.629382783     A.U. after   12 cycles
 SCF Done:  E(RB3LYP) =  -522.631814408     A.U. after   11 cycles
 SCF Done:  E(RB3LYP) =  -522.629102413     A.U. after   12 cycles
 SCF Done:  E(RB3LYP) =  -522.632775882     A.U. after   10 cycles
 SCF Done:  E(RB3LYP) =  -522.633683515     A.U. after   11 cycles
 SCF Done:  E(RB3LYP) =  -522.626256654     A.U. after   13 cycles
 SCF Done:  E(RB3LYP) =  -522.634248972     A.U. after   11 cycles
 SCF Done:  E(RB3LYP) =  -522.635845590     A.U. after   12 cycles
 SCF Done:  E(RB3LYP) =  -522.638808968     A.U. after   13 cycles
 SCF Done:  E(RB3LYP) =  -522.648944489     A.U. after   10 cycles
 SCF Done:  E(RB3LYP) =  -522.648973845     A.U. after    9 cycles
 SCF Done:  E(RB3LYP) =  -522.648986313     A.U. after    9 cycles
 SCF Done:  E(RB3LYP) =  -522.648989141     A.U. after    8 cycles
 SCF Done:  E(RB3LYP) =  -522.648990372     A.U. after    8 cycles
 SCF Done:  E(RB3LYP) =  -522.648990754     A.U. after    8 cycles
 SCF Done:  E(RB3LYP) =  -522.648991042     A.U. after    8 cycles
 SCF Done:  E(RB3LYP) =  -522.648991286     A.U. after    8 cycles
 SCF Done:  E(RB3LYP) =  -522.648991353     A.U. after    7 cycles
 Optimization completed.
    -- Stationary point found.
 Normal termination of Gaussian 09 at Tue Apr 23 13:52:53 2024.

 ----------------------------------------------------------------------
 #N Geom=AllCheck Guess=TCheck SCRF=Check GenChk RB3LYP/6-311+G(d,p) Fr
 eq
 ----------------------------------------------------------------------

 Structure from the checkpoint file:  "67.chk"
 -------------------
 Title Card Required
 -------------------
 Charge =  0 Multiplicity = 1

                         Standard orientation:
 ---------------------------------------------------------------------
 Center     Atomic      Atomic             Coordinates (Angstroms)
 Number     Number       Type             X           Y           Z
 ---------------------------------------------------------------------
      1          6           0       -0.761587    0.755867    0.062371
      2          8           0       -0.957716    1.954543   -0.108514
      3          6           0        1.587728    1.296504    0.486661
      4          6           0        0.959470   -1.057260    0.649715
      5          6           0        2.754123    0.963131   -0.448513
      6          1           0        1.936302    1.297437    1.529581
      7          1           0        1.166600    2.274322    0.270390
      8          6           0        2.115350   -1.469739   -0.273218
      9          1           0        1.299836   -1.094344    1.695375
     10          1           0        0.140755   -1.759065    0.558775
     11          6           0        3.268941   -0.461261   -0.207141
     12          1           0        3.555642    1.693376   -0.297325
     13          1           0        2.415926    1.067403   -1.485769
     14          1           0        2.459078   -2.469650    0.012037
     15          1           0        1.740260   -1.536875   -1.300993
     16          1           0        4.045411   -0.721186   -0.932916
     17          1           0        3.736485   -0.513215    0.784837
     18          7           0        0.508222    0.305178    0.360682
     19          6           0       -1.964807   -0.230298   -0.073138
     20          6           0       -1.747066   -1.245799   -1.218896
     21          1           0       -1.543610   -0.724619   -2.158395
     22          1           0       -0.930952   -1.946708   -1.044404
     23          1           0       -2.658660   -1.834584   -1.358526
     24          6           0       -2.273274   -0.934953    1.268821
     25          1           0       -2.430109   -0.196989    2.060359
     26          1           0       -3.196315   -1.514118    1.169600
     27          1           0       -1.494054   -1.619960    1.603424
     28          6           0       -3.203978    0.612438   -0.440735
     29          1           0       -4.069080   -0.048949   -0.547269
     30          1           0       -3.422644    1.354530    0.327685
     31          1           0       -3.056097    1.148824   -1.378697
 ---------------------------------------------------------------------

 SCF Done:  E(RB3LYP) =  -522.648991353     A.U. after    1 cycles

 The electronic state is 1-A.
 Alpha  occ. eigenvalues --  -19.07766 -14.33939 -10.26568 -10.21322 -10.19685
 Alpha  occ. eigenvalues --  -10.19662 -10.17863 -10.17505 -10.17214 -10.16735
 Alpha  occ. eigenvalues --  -10.16685 -10.14925  -1.03369  -0.93546  -0.82022
 Alpha  occ. eigenvalues --   -0.80368  -0.76684  -0.69742  -0.68877  -0.68050
 Alpha  occ. eigenvalues --   -0.64134  -0.60765  -0.57658  -0.54362  -0.49091
 Alpha  occ. eigenvalues --   -0.48161  -0.46399  -0.46208  -0.44827  -0.43845
 Alpha  occ. eigenvalues --   -0.43511  -0.42946  -0.41484  -0.40128  -0.39379
 Alpha  occ. eigenvalues --   -0.38560  -0.37436  -0.36743  -0.36497  -0.35407
 Alpha  occ. eigenvalues --   -0.34449  -0.33780  -0.33490  -0.33049  -0.32343
 Alpha  occ. eigenvalues --   -0.24670  -0.24035
 Alpha virt. eigenvalues --   -0.00702   0.00429   0.00908   0.01742   0.02716
 Alpha virt. eigenvalues --    0.02977   0.03465   0.03534   0.04435   0.04709
 Alpha virt. eigenvalues --    0.05740   0.06062   0.06139   0.06582   0.06803

 Mulliken charges:
               1
     1  C   -0.210069
     2  O   -0.327732
     3  C   -0.208719
     4  C   -0.201505
     5  C   -0.233162
     6  H    0.143649
     7  H    0.204891
     8  C   -0.298883
     9  H    0.148105
    10  H    0.146790
    11  C   -0.343918
    12  H    0.149778
    13  H    0.151256
    14  H    0.148182
    15  H    0.148750
    16  H    0.149420
    17  H    0.143537
    18  N    0.075402
    19  C    0.317479
    20  C   -0.442314
    21  H    0.150767
    22  H    0.122875
    23  H    0.145899
    24  C   -0.381539
    25  H    0.149524
    26  H    0.144782
    27  H    0.125470
    28  C   -0.565289
    29  H    0.128523
    30  H    0.159500
    31  H    0.158553
 Sum of Mulliken charges =   0.00000

 Dipole moment (field-independent basis, Debye):
    X=              1.7494    Y=             -3.2082    Z=              0.4876  Tot=              3.6865
 Quadrupole moment (field-independent basis, Debye-Ang):
   XX=            -73.8384   YY=            -82.6515   ZZ=            -76.1806
   XY=              4.2231   XZ=              0.0802   YZ=              0.4498

  Exact polarizability: 151.195  -3.102 124.522   2.495  -1.313 109.547
 Approx polarizability: 186.107  -8.765 186.059   6.701  -4.699 164.873

 ESP charges:
               1
     1  C    0.422876
     2  O   -0.552640
     3  C    0.146034
     4  C   -0.062654
     5  C   -0.004693
     6  H   -0.001610
     7  H    0.035667
     8  C    0.017852
     9  H    0.058364
    10  H    0.076851
    11  C    0.017691
    12  H   -0.005665
    13  H    0.018554
    14  H    0.003328
    15  H    0.008299
    16  H   -0.002986
    17  H    0.002966
    18  N   -0.282187
    19  C    0.505915
    20  C   -0.341786
    21  H    0.069459
    22  H    0.062949
    23  H    0.071100
    24  C   -0.307147
    25  H    0.058252
    26  H    0.070391
    27  H    0.037866
    28  C   -0.317869
    29  H    0.054318
    30  H    0.070362
    31  H    0.070144
 Sum of ESP charges =   0.00000

 Summary of Natural Population Analysis:

                                       Natural Population
                Natural  -----------------------------------------------
    Atom  No    Charge         Core      Valence    Rydberg      Total
 -----------------------------------------------------------------------
      C    1    0.70636      1.99918     3.24407    0.05038     5.29364
      O    2   -0.64854      1.99976     6.63729    0.01149     8.64854
      C    3   -0.17959      1.99925     4.16204    0.01830     6.17959
      C    4   -0.16923      1.99924     4.15358    0.01640     6.16923
      C    5   -0.39240      1.99928     4.37991    0.01321     6.39240
      H    6    0.18030      0.00000     0.81778    0.00192     0.81970
      H    7    0.24264      0.00000     0.75483    0.00254     0.75736
      C    8   -0.39175      1.99928     4.37923    0.01324     6.39175
      H    9    0.18473      0.00000     0.81323    0.00204     0.81527
      H   10    0.20646      0.00000     0.79170    0.00184     0.79354
      C   11   -0.38477      1.99929     4.37154    0.01395     6.38477
      H   12    0.20437      0.00000     0.79393    0.00169     0.79563
      H   13    0.19847      0.00000     0.79953    0.00200     0.80153
      H   14    0.20259      0.00000     0.79567    0.00174     0.79741
      H   15    0.19644      0.00000     0.80135    0.00221     0.80356
      H   16    0.20360      0.00000     0.79484    0.00156     0.79640
      H   17    0.18939      0.00000     0.80837    0.00224     0.81061
      N   18   -0.52742      1.99927     5.50067    0.02748     7.52742
      C   19   -0.15772      1.99914     4.14089    0.01768     6.15772
      C   20   -0.56799      1.99929     4.55670    0.01200     6.56799
      H   21    0.20908      0.00000     0.78965    0.00127     0.79092
      H   22    0.19373      0.00000     0.80486    0.00141     0.80627
      H   23    0.20316      0.00000     0.79527    0.00157     0.79684
      C   24   -0.56839      1.99929     4.55748    0.01162     6.56839
      H   25    0.20961      0.00000     0.78914    0.00125     0.79039
      H   26    0.20323      0.00000     0.79522    0.00154     0.79677
      H   27    0.19511      0.00000     0.80364    0.00124     0.80489
      C   28   -0.56120      1.99931     4.54843    0.01346     6.56120
      H   29    0.18936      0.00000     0.80917    0.00148     0.81064
      H   30    0.21558      0.00000     0.78312    0.00130     0.78442
      H   31    0.21478      0.00000     0.78392    0.00131     0.78522
 =======================================================================
   * Total *    0.00000     23.99159    69.75706    0.25135    94.00000

                      1                      2                      3
                      A                      A                      A
 Frequencies --     40.9241                53.8280                93.3063
 Red. masses --      3.4259                 4.1266                 2.7607
 Frc consts  --      0.0034                 0.0070                 0.0142
 IR Inten    --      0.2614                 1.9638                 0.3426

                      4                      5                      6
                      A                      A                      A
 Frequencies --    156.0107               159.9437               196.7394
 Red. masses --      2.5924                 1.1282                 1.1523
 Frc consts  --      0.0372                 0.0170                 0.0263
 IR Inten    --      0.4331                 0.0421                 0.1873

                      7                      8                      9
                      A                      A                      A
 Frequencies --    229.2673               262.6784               271.1661
 Red. masses --      2.1622                 1.9811                 2.1340
 Frc consts  --      0.0670                 0.0805                 0.0925
 IR Inten    --      0.5775                 0.7975                 1.0952

                     10                     11                     12
                      A                      A                      A
 Frequencies --    295.8235               327.4596               331.4493
 Red. masses --      1.1991                 2.4855                 3.0331
 Frc consts  --      0.0618                 0.1570                 0.1963
 IR Inten    --      0.2772                 1.4372                 0.5892

                     13                     14                     15
                      A                      A                      A
 Frequencies --    375.2022               397.7373               412.0253
 Red. masses --      2.3921                 2.2938                 3.9410
 Frc consts  --      0.1984                 0.2138                 0.3942
 IR Inten    --      2.2740                 0.3571                 9.2018

                     16                     17                     18
                      A                      A                      A
 Frequencies --    428.5517               457.6982               504.5999
 Red. masses --      1.9736                 2.6750                 2.3856
 Frc consts  --      0.2136                 0.3302                 0.3579
 IR Inten    --      2.5861                 0.5424                 2.6093

                     19                     20                     21
                      A                      A                      A
 Frequencies --    558.2202               579.8505               678.3331
 Red. masses --      2.7096                 2.5272                 3.5399
 Frc consts  --      0.4975                 0.5006                 0.9597
 IR Inten    --      8.0463                 2.0246                 3.4201

                     22                     23                     24
                      A                      A                      A
 Frequencies --    751.7914               810.8739               819.2944
 Red. masses --      7.1239                 2.7992                 1.6270
 Frc consts  --      2.3723                 1.0844                 0.6435
 IR Inten    --      2.4113                 0.3694                 0.2654

                     25                     26                     27
                      A                      A                      A
 Frequencies --    838.3166               861.4452               896.1645
 Red. masses --      2.7139                 1.4552                 2.5948
 Frc consts  --      1.1237                 0.6363                 1.2278
 IR Inten    --      2.4321                10.2362                 3.4649

                     28                     29                     30
                      A                      A                      A
 Frequencies --    932.9580               936.1033               937.7906
 Red. masses --      2.4120                 1.7372                 1.7971
 Frc consts  --      1.2369                 0.8969                 0.9312
 IR Inten    --      0.3035                 0.6409                 0.4795

                     31                     32                     33
                      A                      A                      A
 Frequencies --    965.8261               972.1285              1021.6283
 Red. masses --      1.2804                 1.2534                 2.1097
 Frc consts  --      0.7037                 0.6979                 1.2973
 IR Inten    --      1.6647                 1.8925                42.2828

                     34                     35                     36
                      A                      A                      A
 Frequencies --   1037.4383              1046.7410              1052.7069
 Red. masses --      2.1040                 1.4364                 1.5152
 Frc consts  --      1.3342                 0.9272                 0.9893
 IR Inten    --     10.6043                 2.7343                 1.3637

                     37                     38                     39
                      A                      A                      A
 Frequencies --   1080.1054              1139.9544              1145.1708
 Red. masses --      1.6935                 2.1572                 1.8352
 Frc consts  --      1.1641                 1.6517                 1.4180
 IR Inten    --      0.0250                50.6388                37.4321

                     40                     41                     42
                      A                      A                      A
 Frequencies --   1182.0221              1213.6773              1224.1465
 Red. masses --      1.2546                 2.1107                 2.7177
 Frc consts  --      1.0327                 1.8318                 2.3995
 IR Inten    --      1.9592                95.4703                 5.2137

                     43                     44                     45
                      A                      A                      A
 Frequencies --   1230.2669              1263.9479              1278.6300
 Red. masses --      2.4640                 2.3921                 2.0577
 Frc consts  --      2.1973                 2.2516                 1.9821
 IR Inten    --     22.3818                 4.2702                65.2768

                     46                     47                     48
                      A                      A                      A
 Frequencies --   1288.9395              1308.3349              1355.9563
 Red. masses --      1.3102                 1.2027                 1.2756
 Frc consts  --      1.2825                 1.2129                 1.3818
 IR Inten    --      8.6054                14.0074                 0.6826

                     49                     50                     51
                      A                      A                      A
 Frequencies --   1375.3204              1380.2599              1381.8318
 Red. masses --      1.3346                 1.4681                 1.5375
 Frc consts  --      1.4874                 1.6479                 1.7297
 IR Inten    --      1.9711                 3.3556                 7.3031

                     52                     53                     54
                      A                      A                      A
 Frequencies --   1395.4208              1401.6613              1407.5546
 Red. masses --      1.2814                 1.2478                 1.2207
 Frc consts  --      1.4701                 1.4444                 1.4249
 IR Inten    --      6.6002                20.4069                 8.1113

                     55                     56                     57
                      A                      A                      A
 Frequencies --   1428.0774              1444.9418              1476.5668
 Red. masses --      1.5389                 1.6453                 1.0530
 Frc consts  --      1.8491                 2.0239                 1.3527
 IR Inten    --     26.0316               136.5114                 1.4357

                     58                     59                     60
                      A                      A                      A
 Frequencies --   1479.5125              1485.7817              1487.1069
 Red. masses --      1.0920                 1.0613                 1.0703
 Frc consts  --      1.4084                 1.3804                 1.3946
 IR Inten    --      2.8751                 2.1856                 6.7631

                     61                     62                     63
                      A                      A                      A
 Frequencies --   1488.5728              1493.4834              1496.2889
 Red. masses --      1.0526                 1.0938                 1.0625
 Frc consts  --      1.3742                 1.4375                 1.4016
 IR Inten    --      0.3268                 9.8469                 1.3783

                     64                     65                     66
                      A                      A                      A
 Frequencies --   1504.9098              1508.0948              1517.8971
 Red. masses --      1.0839                 1.0566                 1.0696
 Frc consts  --      1.4463                 1.4158                 1.4519
 IR Inten    --      5.5712                 5.7380                12.9273

                     67                     68                     69
                      A                      A                      A
 Frequencies --   1524.4047              1681.0460              2972.2080
 Red. masses --      1.0814                10.4922                 1.0755
 Frc consts  --      1.4806                17.4694                 5.5979
 IR Inten    --     21.9288               318.1239                28.2474

                     70                     71                     72
                      A                      A                      A
 Frequencies --   2981.6949              3002.6993              3018.0339
 Red. masses --      1.0739                 1.0690                 1.0603
 Frc consts  --      5.6251                 5.6786                 5.6904
 IR Inten    --     59.3456                28.7048                27.4872

                     73                     74                     75
                      A                      A                      A
 Frequencies --   3020.8053              3029.3024              3029.6478
 Red. masses --      1.0612                 1.0385                 1.0394
 Frc consts  --      5.7053                 5.6148                 5.6208
 IR Inten    --     26.2567                25.3688                14.3826

                     76                     77                     78
                      A                      A                      A
 Frequencies --   3038.5570              3054.7843              3058.8888
 Red. masses --      1.0398                 1.0925                 1.1027
 Frc consts  --      5.6566                 6.0067                 6.0790
 IR Inten    --     44.0564                57.5995                33.1435

                     79                     80                     81
                      A                      A                      A
 Frequencies --   3065.1426              3085.2309              3086.3972
 Red. masses --      1.1048                 1.1014                 1.1005
 Frc consts  --      6.1154                 6.1767                 6.1764
 IR Inten    --     73.6317                10.9695                29.6909

                     82                     83                     84
                      A                      A                      A
 Frequencies --   3105.7624              3114.8625              3119.3001
 Red. masses --      1.0967                 1.0976                 1.0967
 Frc consts  --      6.2325                 6.2744                 6.2873
 IR Inten    --     32.6341                28.9981                37.2258

                     85                     86                     87
                      A                      A                      A
 Frequencies --   3124.6323              3147.4013              3192.9221
 Red. masses --      1.1022                 1.0894                 1.0852
 Frc consts  --      6.3405                 6.3585                 6.5184
 IR Inten    --     22.4963                 5.9868                12.9916

 - Thermochemistry -
 -------------------
 Temperature   298.150 Kelvin.  Pressure   1.00000 Atm.
 Atom     1 has atomic number  6 and mass  12.00000

 Molecular mass:   169.14666 amu.
 Principal axes and moments of inertia in atomic units:
                           1         2         3
     Eigenvalues --  1069.769462937.007753415.98700
           X            0.99993   0.01160  -0.00009
           Y           -0.01160   0.99993   0.00098
           Z            0.00011  -0.00098   1.00000
 This molecule is an asymmetric top.
 Rotational symmetry number  1.
 Warning -- assumption of classical behavior for rotation
           may cause significant error
 Rotational temperatures (Kelvin)      0.08096     0.02949     0.02536
 Rotational constants (GHZ):           1.68704     0.61448     0.52832
 Zero-point vibrational energy     735764.3 (Joules/Mol)
                                  175.85188 (Kcal/Mol)
 Warning -- explicit consideration of  20 degrees of freedom as
           vibrations may cause significant error
 Vibrational temperatures:     58.88    77.45   134.25   224.46   230.12
          (Kelvin)            283.06   329.86   377.94   390.15   425.62
                              471.14   476.88   539.83   572.25   592.81
                              616.59   658.52   726.01   803.15   834.27
                              975.97  1081.66  1166.67  1178.78  1206.15
                             1239.43  1289.38  1342.32  1346.84  1349.27
                             1389.61  1398.67  1469.89  1492.64  1506.02
                             1514.61  1554.03  1640.14  1647.64  1700.66
                             1746.21  1761.27  1770.08  1818.54  1839.66
                             1854.49  1882.40  1950.92  1978.78  1985.88
                             1988.15  2007.70  2016.68  2025.15  2054.68
                             2078.95  2124.45  2128.69  2137.71  2139.61
                             2141.72  2148.79  2152.82  2165.23  2169.81
                             2183.91  2193.28  2418.65  4276.34  4289.99
                             4320.21  4342.27  4346.26  4358.49  4358.98
                             4371.80  4395.15  4401.05  4410.05  4438.95
                             4440.63  4468.49  4481.59  4487.97  4495.64
                             4528.40  4593.90

 Zero-point correction=                           0.280238 (Hartree/Particle)
 Thermal correction to Energy=                    0.293227
 Thermal correction to Enthalpy=                  0.294171
 Thermal correction to Gibbs Free Energy=         0.241313
 Sum of electronic and zero-point Energies=           -522.368754
 Sum of electronic and thermal Energies=              -522.355764
 Sum of electronic and thermal Enthalpies=            -522.354820
 Sum of electronic and thermal Free Energies=         -522.407679

                     E (Thermal)             CV                S
                      KCal/Mol        Cal/Mol-Kelvin    Cal/Mol-Kelvin
 Total                  184.003             50.392            111.251
 Electronic               0.000              0.000              0.000
 Translational            0.889              2.981             41.285
 Rotational               0.889              2.981             30.752
 Vibrational            182.225             44.431             39.215
 Vibration     1          0.594              1.981              5.214
 Vibration     2          0.596              1.976              4.672
 Vibration     3          0.602              1.954              3.590
 Vibration     4          0.620              1.896              2.598
 Vibration     5          0.622              1.891              2.550
 Vibration     6          0.636              1.844              2.163
 Vibration     7          0.652              1.796              1.885
 Vibration     8          0.670              1.741              1.644
 Vibration     9          0.675              1.726              1.589
 Vibration    10          0.690              1.682              1.440
 Vibration    11          0.711              1.621              1.273
 Vibration    12          0.714              1.613              1.253
 Vibration    13          0.746              1.523              1.058
 Vibration    14          0.764              1.475              0.971
 Vibration    15          0.776              1.444              0.919
 Vibration    16          0.790              1.408              0.863
 Vibration    17          0.816              1.344              0.773
 Vibration    18          0.860              1.240              0.647
 Vibration    19          0.914              1.122              0.527
 Vibration    20          0.936              1.075              0.486

 Optimization completed.
    -- Stationary point found.
 Normal termination of Gaussian 09 at Tue Apr 23 13:59:23 2024.
