 Gaussian 09, Revision D.01,
 Gaussian 09:  ES64L-G09RevD.01 24-Apr-2013

 ----------------------------------------------------------------------
 # opt freq=noraman b3lyp/6-311+g(d,p) pop=(npa,hirshfeld,chelpg,mbs) g
 eom=connectivity
 ----------------------------------------------------------------------

 -------------------
 Title Card Required
 -------------------
 Symbolic Z-matrix:
 Charge =  0 Multiplicity = 1

 SCF Done:  E(RB3LYP) =  -597.849257559     A.U. after   13 cycles
 SCF Done:  E(RB3LYP) =  -597.877858910     A.U. after   12 cycles
 SCF Done:  E(RB3LYP) =  -597.882704857     A.U. after   12 cycles
 SCF Done:  E(RB3LYP) =  -597.889395407     A.U. after   11 cycles
 SCF Done:  E(RB3LYP) =  -597.892528059     A.U. after   11 cycles
 SCF Done:  E(RB3LYP) =  -597.891870839     A.U. after   12 cycles
 SCF Done:  E(RB3LYP) =  -597.893486958     A.U. after    9 cycles
 SCF Done:  E(RB3LYP) =  -597.894587340     A.U. after   11 cycles
 SCF Done:  E(RB3LYP) =  -597.894947647     A.U. after   11 cycles
 SCF Done:  E(RB3LYP) =  -597.896796208     A.U. after   14 cycles
 SCF Done:  E(RB3LYP) =  -597.917916155     A.U. after   10 cycles
 SCF Done:  E(RB3LYP) =  -597.918011696     A.U. after   10 cycles
 SCF Done:  E(RB3LYP) =  -597.918061648     A.U. after   10 cycles
 SCF Done:  E(RB3LYP) =  -597.918095979     A.U. after   10 cycles
 SCF Done:  E(RB3LYP) =  -597.918110546     A.U. after    9 cycles
 SCF Done:  E(RB3LYP) =  -597.918118576     A.U. after    9 cycles
 SCF Done:  E(RB3LYP) =  -597.918119838     A.U. after    8 cycles
 SCF Done:  E(RB3LYP) =  -597.918120277     A.U. after    8 cycles
 SCF Done:  E(RB3LYP) =  -597.918120399     A.U. after    7 cycles
 Optimization completed.
    -- Stationary point found.
 Normal termination of Gaussian 09 at Tue Apr 23 13:47:43 2024.

 ----------------------------------------------------------------------
 #N Geom=AllCheck Guess=TCheck SCRF=Check GenChk RB3LYP/6-311+G(d,p) Fr
 eq
 ----------------------------------------------------------------------

 Structure from the checkpoint file:  "66.chk"
 -------------------
 Title Card Required
 -------------------
 Charge =  0 Multiplicity = 1

                         Standard orientation:
 ---------------------------------------------------------------------
 Center     Atomic      Atomic             Coordinates (Angstroms)
 Number     Number       Type             X           Y           Z
 ---------------------------------------------------------------------
      1          6           0       -0.266631   -0.640999   -0.116063
      2          8           0       -0.600196   -1.801402    0.051816
      3          8           0       -1.123483    0.411716   -0.132375
      4          6           0       -2.571239    0.225286    0.078858
      5          6           0       -3.162266   -0.637110   -1.039785
      6          1           0       -2.782211   -1.656301   -0.994889
      7          1           0       -4.251293   -0.662240   -0.942326
      8          1           0       -2.919526   -0.210038   -2.016546
      9          6           0       -3.102162    1.657547   -0.007757
     10          1           0       -4.185621    1.664243    0.134197
     11          1           0       -2.648338    2.283794    0.763854
     12          1           0       -2.878282    2.093272   -0.984182
     13          6           0       -2.836251   -0.362171    1.468032
     14          1           0       -2.359425    0.251273    2.237265
     15          1           0       -3.913024   -0.367736    1.659347
     16          1           0       -2.461326   -1.381266    1.545489
     17          6           0        2.082975   -1.244057   -0.398091
     18          6           0        1.438129    1.137391   -0.607685
     19          6           0        3.275850   -0.870705    0.487058
     20          1           0        2.409347   -1.318131   -1.446583
     21          1           0        1.655294   -2.202804   -0.113826
     22          6           0        2.624109    1.558249    0.268711
     23          1           0        1.727743    1.191473   -1.668338
     24          1           0        0.589400    1.798953   -0.462574
     25          6           0        3.774542    0.547056    0.177365
     26          1           0        4.076172   -1.602557    0.337813
     27          1           0        2.971227   -0.934647    1.537934
     28          1           0        2.959673    2.553974   -0.039045
     29          1           0        2.284904    1.638075    1.307938
     30          1           0        4.583533    0.826804    0.858970
     31          1           0        4.196587    0.569318   -0.836123
     32          7           0        1.027467   -0.234413   -0.299678
 ---------------------------------------------------------------------

 SCF Done:  E(RB3LYP) =  -597.918120399     A.U. after    1 cycles

 The electronic state is 1-A.
 Alpha  occ. eigenvalues --  -19.14938 -19.08257 -14.33631 -10.31006 -10.24286
 Alpha  occ. eigenvalues --  -10.20437 -10.19957 -10.17335 -10.17237 -10.17120
 Alpha  occ. eigenvalues --  -10.16342 -10.15619 -10.15605  -1.09492  -1.00591
 Alpha  occ. eigenvalues --   -0.94089  -0.81719  -0.79754  -0.76461  -0.69573
 Alpha  occ. eigenvalues --   -0.69299  -0.68675  -0.64077  -0.61311  -0.57670
 Alpha  occ. eigenvalues --   -0.53963  -0.51077  -0.47982  -0.47386  -0.46327
 Alpha  occ. eigenvalues --   -0.45918  -0.44930  -0.44517  -0.43151  -0.42444
 Alpha  occ. eigenvalues --   -0.41654  -0.40587  -0.39904  -0.38940  -0.38288
 Alpha  occ. eigenvalues --   -0.36914  -0.36002  -0.35487  -0.35218  -0.34163
 Alpha  occ. eigenvalues --   -0.33763  -0.33112  -0.32709  -0.29399  -0.26692
 Alpha  occ. eigenvalues --   -0.24044
 Alpha virt. eigenvalues --   -0.00218   0.00757   0.01612   0.01916   0.02716
 Alpha virt. eigenvalues --    0.03176   0.03438   0.04563   0.04750   0.05205
 Alpha virt. eigenvalues --    0.05542   0.05789   0.06115   0.06462   0.06750

 Mulliken charges:
               1
     1  C    0.141965
     2  O   -0.315169
     3  O    0.002204
     4  C   -0.197069
     5  C   -0.343788
     6  H    0.185733
     7  H    0.136621
     8  H    0.143462
     9  C   -0.461946
    10  H    0.145919
    11  H    0.152907
    12  H    0.153895
    13  C   -0.343715
    14  H    0.142609
    15  H    0.136734
    16  H    0.185653
    17  C   -0.234388
    18  C   -0.304843
    19  C   -0.222070
    20  H    0.144616
    21  H    0.194345
    22  C   -0.239981
    23  H    0.143619
    24  H    0.190112
    25  C   -0.322081
    26  H    0.147978
    27  H    0.149464
    28  H    0.147435
    29  H    0.149277
    30  H    0.148049
    31  H    0.142063
    32  N   -0.099610
 Sum of Mulliken charges =   0.00000

 Dipole moment (field-independent basis, Debye):
    X=              0.8560    Y=              2.2082    Z=             -0.2234  Tot=              2.3788
 Quadrupole moment (field-independent basis, Debye-Ang):
   XX=            -72.4572   YY=            -86.3701   ZZ=            -81.2849
   XY=             -2.1126   XZ=             -0.7455   YZ=              0.2967

  Exact polarizability: 160.352   1.582 127.657  -1.660  -1.030 112.504
 Approx polarizability: 191.689   5.642 185.922  -5.496  -3.454 165.759

 ESP charges:
               1
     1  C    0.765441
     2  O   -0.582832
     3  O   -0.535910
     4  C    0.769145
     5  C   -0.330859
     6  H    0.085980
     7  H    0.059372
     8  H    0.060097
     9  C   -0.388254
    10  H    0.073710
    11  H    0.093603
    12  H    0.087004
    13  C   -0.358577
    14  H    0.067959
    15  H    0.063016
    16  H    0.096883
    17  C    0.170058
    18  C    0.148384
    19  C   -0.006129
    20  H   -0.003021
    21  H    0.013371
    22  C   -0.006536
    23  H    0.004395
    24  H    0.015018
    25  C    0.075993
    26  H   -0.007911
    27  H    0.006314
    28  H   -0.007593
    29  H    0.006104
    30  H   -0.017805
    31  H   -0.020911
    32  N   -0.395508
 Sum of ESP charges =   0.00000

 Summary of Natural Population Analysis:

                                       Natural Population
                Natural  -----------------------------------------------
    Atom  No    Charge         Core      Valence    Rydberg      Total
 -----------------------------------------------------------------------
      C    1    0.94055      1.99930     3.01148    0.04866     5.05945
      O    2   -0.67639      1.99974     6.66661    0.01004     8.67639
      O    3   -0.61435      1.99969     6.59322    0.02144     8.61435
      C    4    0.27421      1.99911     3.70369    0.02299     5.72579
      C    5   -0.60510      1.99923     4.59455    0.01131     6.60510
      H    6    0.23328      0.00000     0.76521    0.00152     0.76672
      H    7    0.20353      0.00000     0.79519    0.00128     0.79647
      H    8    0.20378      0.00000     0.79481    0.00141     0.79622
      C    9   -0.58021      1.99924     4.56900    0.01198     6.58021
      H   10    0.20419      0.00000     0.79462    0.00119     0.79581
      H   11    0.20697      0.00000     0.79159    0.00144     0.79303
      H   12    0.20719      0.00000     0.79136    0.00145     0.79281
      C   13   -0.60540      1.99923     4.59482    0.01134     6.60540
      H   14    0.20384      0.00000     0.79477    0.00139     0.79616
      H   15    0.20357      0.00000     0.79508    0.00135     0.79643
      H   16    0.23324      0.00000     0.76521    0.00155     0.76676
      C   17   -0.17159      1.99926     4.15474    0.01758     6.17159
      C   18   -0.17042      1.99926     4.15379    0.01737     6.17042
      C   19   -0.39231      1.99928     4.37943    0.01361     6.39231
      H   20    0.17831      0.00000     0.81946    0.00223     0.82169
      H   21    0.23651      0.00000     0.76159    0.00191     0.76349
      C   22   -0.39172      1.99928     4.37874    0.01370     6.39172
      H   23    0.17821      0.00000     0.81946    0.00233     0.82179
      H   24    0.22910      0.00000     0.76940    0.00149     0.77090
      C   25   -0.38596      1.99929     4.37258    0.01409     6.38596
      H   26    0.20353      0.00000     0.79474    0.00173     0.79647
      H   27    0.19732      0.00000     0.80041    0.00227     0.80268
      H   28    0.20262      0.00000     0.79561    0.00177     0.79738
      H   29    0.19609      0.00000     0.80157    0.00234     0.80391
      H   30    0.20308      0.00000     0.79540    0.00152     0.79692
      H   31    0.18923      0.00000     0.80845    0.00232     0.81077
      N   32   -0.53490      1.99926     5.51060    0.02504     7.53490
 =======================================================================
   * Total *    0.00000     25.99118    75.73717    0.27165   102.00000

                      1                      2                      3
                      A                      A                      A
 Frequencies --     31.2476                54.4994                74.2354
 Red. masses --      3.3425                 2.9093                 4.2874
 Frc consts  --      0.0019                 0.0051                 0.0139
 IR Inten    --      0.5557                 0.1906                 2.4501

                      4                      5                      6
                      A                      A                      A
 Frequencies --    117.9118               129.9035               207.2139
 Red. masses --      3.5213                 3.9682                 1.1474
 Frc consts  --      0.0288                 0.0395                 0.0290
 IR Inten    --      1.3155                 0.4821                 0.2695

                      7                      8                      9
                      A                      A                      A
 Frequencies --    212.0102               237.8800               250.1512
 Red. masses --      2.2412                 2.2578                 1.1109
 Frc consts  --      0.0594                 0.0753                 0.0410
 IR Inten    --      3.0417                 1.1498                 0.1751

                     10                     11                     12
                      A                      A                      A
 Frequencies --    261.9214               271.8040               309.2571
 Red. masses --      2.4066                 1.0683                 2.5941
 Frc consts  --      0.0973                 0.0465                 0.1462
 IR Inten    --      0.9837                 0.0391                 0.6136

                     13                     14                     15
                      A                      A                      A
 Frequencies --    348.7405               356.8240               385.7100
 Red. masses --      2.5043                 4.1986                 1.6984
 Frc consts  --      0.1795                 0.3150                 0.1489
 IR Inten    --      1.7730                15.9411                 1.3990

                     16                     17                     18
                      A                      A                      A
 Frequencies --    402.2342               442.0880               453.2194
 Red. masses --      2.8640                 2.8536                 2.8149
 Frc consts  --      0.2730                 0.3286                 0.3407
 IR Inten    --      1.2643                 2.6756                 0.4995

                     19                     20                     21
                      A                      A                      A
 Frequencies --    457.0946               512.5609               543.6701
 Red. masses --      2.8831                 2.1639                 2.4364
 Frc consts  --      0.3549                 0.3349                 0.4243
 IR Inten    --      2.3337                 0.8123                 8.9076

                     22                     23                     24
                      A                      A                      A
 Frequencies --    651.8153               760.4170               773.1197
 Red. masses --      3.1253                 4.1116                11.5547
 Frc consts  --      0.7823                 1.4008                 4.0691
 IR Inten    --      2.1796                 2.9545                17.6079

                     25                     26                     27
                      A                      A                      A
 Frequencies --    815.0798               818.3676               849.1440
 Red. masses --      4.1825                 1.5550                 3.6756
 Frc consts  --      1.6371                 0.6136                 1.5615
 IR Inten    --      5.8919                 1.0527                 0.7672

                     28                     29                     30
                      A                      A                      A
 Frequencies --    864.1564               867.4267               914.7451
 Red. masses --      1.4012                 3.0904                 2.3790
 Frc consts  --      0.6165                 1.3700                 1.1728
 IR Inten    --      8.6387                40.2579                14.4846

                     31                     32                     33
                      A                      A                      A
 Frequencies --    923.0382               925.5354               967.9316
 Red. masses --      1.6482                 1.6863                 1.2010
 Frc consts  --      0.8274                 0.8511                 0.6629
 IR Inten    --      0.0064                 2.4143                 0.1132

                     34                     35                     36
                      A                      A                      A
 Frequencies --    971.4336               997.2255              1039.2724
 Red. masses --      1.3093                 2.5330                 2.2899
 Frc consts  --      0.7280                 1.4841                 1.4572
 IR Inten    --      3.8305                 5.2822                50.5568

                     37                     38                     39
                      A                      A                      A
 Frequencies --   1049.8653              1055.1067              1077.5546
 Red. masses --      1.4050                 1.4373                 1.7094
 Frc consts  --      0.9124                 0.9428                 1.1695
 IR Inten    --      0.4676                 0.2767                 7.3908

                     40                     41                     42
                      A                      A                      A
 Frequencies --   1099.1296              1151.1785              1163.7552
 Red. masses --      2.6743                 1.9619                 2.4582
 Frc consts  --      1.9035                 1.5319                 1.9615
 IR Inten    --     51.7342                15.4537               310.3921

                     43                     44                     45
                      A                      A                      A
 Frequencies --   1183.5308              1196.9848              1258.7635
 Red. masses --      1.2352                 2.0739                 2.1208
 Frc consts  --      1.0194                 1.7507                 1.9798
 IR Inten    --      6.5796               207.0343               147.4477

                     46                     47                     48
                      A                      A                      A
 Frequencies --   1264.0800              1279.5546              1284.2861
 Red. masses --      2.7295                 2.7603                 1.6367
 Frc consts  --      2.5697                 2.6628                 1.5905
 IR Inten    --     18.7690                25.6117                69.7167

                     49                     50                     51
                      A                      A                      A
 Frequencies --   1292.7903              1308.0576              1356.7502
 Red. masses --      1.5275                 1.2456                 1.2849
 Frc consts  --      1.5041                 1.2557                 1.3935
 IR Inten    --     88.8698                19.8706                 0.2318

                     52                     53                     54
                      A                      A                      A
 Frequencies --   1376.3059              1381.4367              1384.5062
 Red. masses --      1.3588                 1.5153                 1.4043
 Frc consts  --      1.5165                 1.7038                 1.5860
 IR Inten    --      2.5199                14.2296                 3.3893

                     55                     56                     57
                      A                      A                      A
 Frequencies --   1395.8411              1396.9315              1407.3341
 Red. masses --      1.2765                 1.2787                 1.3792
 Frc consts  --      1.4654                 1.4702                 1.6094
 IR Inten    --     23.6563                28.7413                 7.5418

                     58                     59                     60
                      A                      A                      A
 Frequencies --   1424.0465              1449.1783              1469.7074
 Red. masses --      1.2371                 2.7944                 1.0456
 Frc consts  --      1.4782                 3.4577                 1.3307
 IR Inten    --     21.8315               297.0032                 0.2620

                     61                     62                     63
                      A                      A                      A
 Frequencies --   1480.4937              1488.3087              1490.5274
 Red. masses --      1.0934                 1.0849                 1.0469
 Frc consts  --      1.4120                 1.4158                 1.3703
 IR Inten    --      2.3412                 7.6122                 0.8391

                     64                     65                     66
                      A                      A                      A
 Frequencies --   1491.4548              1494.4036              1496.1067
 Red. masses --      1.0516                 1.0915                 1.0757
 Frc consts  --      1.3783                 1.4361                 1.4186
 IR Inten    --      2.5518                19.0530                 6.9895

                     67                     68                     69
                      A                      A                      A
 Frequencies --   1498.2533              1506.1238              1511.2437
 Red. masses --      1.0822                 1.0524                 1.1002
 Frc consts  --      1.4313                 1.4065                 1.4805
 IR Inten    --      5.4017                 2.1185                 6.3198

                     70                     71                     72
                      A                      A                      A
 Frequencies --   1527.3443              1735.6416              2965.6486
 Red. masses --      1.0581                10.6211                 1.0743
 Frc consts  --      1.4543                18.8511                 5.5671
 IR Inten    --     27.9914               451.1801                27.9585

                     73                     74                     75
                      A                      A                      A
 Frequencies --   2971.0018              3001.4379              3019.2720
 Red. masses --      1.0740                 1.0690                 1.0608
 Frc consts  --      5.5857                 5.6742                 5.6975
 IR Inten    --     76.5673                27.8412                28.2024

                     76                     77                     78
                      A                      A                      A
 Frequencies --   3020.4299              3032.0441              3032.7353
 Red. masses --      1.0614                 1.0353                 1.0378
 Frc consts  --      5.7050                 5.6076                 5.6239
 IR Inten    --     26.2706                10.9117                27.0883

                     79                     80                     81
                      A                      A                      A
 Frequencies --   3040.4994              3055.2104              3059.9054
 Red. masses --      1.0378                 1.0915                 1.1028
 Frc consts  --      5.6524                 6.0029                 6.0834
 IR Inten    --     26.4451                57.4716                35.6056

                     82                     83                     84
                      A                      A                      A
 Frequencies --   3065.1849              3091.3034              3093.4493
 Red. masses --      1.1048                 1.1018                 1.1016
 Frc consts  --      6.1156                 6.2034                 6.2107
 IR Inten    --     74.5737                 8.2888                18.8834

                     85                     86                     87
                      A                      A                      A
 Frequencies --   3105.7771              3107.3483              3135.8164
 Red. masses --      1.1027                 1.1016                 1.0895
 Frc consts  --      6.2668                 6.2671                 6.3120
 IR Inten    --     32.2712                51.3799                 4.2627

                     88                     89                     90
                      A                      A                      A
 Frequencies --   3139.1090              3142.1560              3153.1360
 Red. masses --      1.0994                 1.0987                 1.0888
 Frc consts  --      6.3827                 6.3911                 6.3777
 IR Inten    --      0.4918                11.2810                 5.0212

 - Thermochemistry -
 -------------------
 Temperature   298.150 Kelvin.  Pressure   1.00000 Atm.
 Atom     1 has atomic number  6 and mass  12.00000

 Molecular mass:   185.14158 amu.
 Principal axes and moments of inertia in atomic units:
                           1         2         3
     Eigenvalues --  1066.921714204.329694702.11032
           X            1.00000  -0.00261  -0.00025
           Y            0.00261   1.00000   0.00055
           Z            0.00024  -0.00055   1.00000
 This molecule is an asymmetric top.
 Rotational symmetry number  1.
 Warning -- assumption of classical behavior for rotation
           may cause significant error
 Rotational temperatures (Kelvin)      0.08118     0.02060     0.01842
 Rotational constants (GHZ):           1.69154     0.42926     0.38382
 Zero-point vibrational energy     746810.3 (Joules/Mol)
                                  178.49194 (Kcal/Mol)
 Warning -- explicit consideration of  21 degrees of freedom as
           vibrations may cause significant error
 Vibrational temperatures:     44.96    78.41   106.81   169.65   186.90
          (Kelvin)            298.13   305.03   342.26   359.91   376.85
                              391.06   444.95   501.76   513.39   554.95
                              578.72   636.07   652.08   657.66   737.46
                              782.22   937.82  1094.07  1112.35  1172.72
                             1177.45  1221.73  1243.33  1248.03  1316.11
                             1328.04  1331.64  1392.64  1397.67  1434.78
                             1495.28  1510.52  1518.06  1550.36  1581.40
                             1656.29  1674.38  1702.83  1722.19  1811.08
                             1818.73  1840.99  1847.80  1860.03  1882.00
                             1952.06  1980.19  1987.58  1991.99  2008.30
                             2009.87  2024.84  2048.88  2085.04  2114.58
                             2130.10  2141.34  2144.53  2145.87  2150.11
                             2152.56  2155.65  2166.97  2174.34  2197.51
                             2497.20  4266.90  4274.60  4318.39  4344.05
                             4345.72  4362.43  4363.42  4374.59  4395.76
                             4402.52  4410.11  4447.69  4450.78  4468.51
                             4470.78  4511.73  4516.47  4520.86  4536.65

 Zero-point correction=                           0.284445 (Hartree/Particle)
 Thermal correction to Energy=                    0.298438
 Thermal correction to Enthalpy=                  0.299382
 Thermal correction to Gibbs Free Energy=         0.243784
 Sum of electronic and zero-point Energies=           -597.633675
 Sum of electronic and thermal Energies=              -597.619683
 Sum of electronic and thermal Enthalpies=            -597.618739
 Sum of electronic and thermal Free Energies=         -597.674337

                     E (Thermal)             CV                S
                      KCal/Mol        Cal/Mol-Kelvin    Cal/Mol-Kelvin
 Total                  187.272             53.738            117.016
 Electronic               0.000              0.000              0.000
 Translational            0.889              2.981             41.554
 Rotational               0.889              2.981             31.423
 Vibrational            185.495             47.776             44.039
 Vibration     1          0.594              1.983              5.749
 Vibration     2          0.596              1.976              4.647
 Vibration     3          0.599              1.966              4.038
 Vibration     4          0.608              1.934              3.134
 Vibration     5          0.612              1.923              2.947
 Vibration     6          0.641              1.830              2.068
 Vibration     7          0.643              1.823              2.026
 Vibration     8          0.656              1.783              1.819
 Vibration     9          0.663              1.763              1.730
 Vibration    10          0.669              1.743              1.649
 Vibration    11          0.675              1.725              1.585
 Vibration    12          0.699              1.656              1.366
 Vibration    13          0.726              1.578              1.172
 Vibration    14          0.732              1.561              1.136
 Vibration    15          0.754              1.501              1.017
 Vibration    16          0.768              1.465              0.954
 Vibration    17          0.802              1.378              0.820
 Vibration    18          0.812              1.354              0.786
 Vibration    19          0.815              1.345              0.775
 Vibration    20          0.868              1.222              0.627
 Vibration    21          0.899              1.154              0.557

 Optimization completed.
    -- Stationary point found.
 Normal termination of Gaussian 09 at Tue Apr 23 13:55:26 2024.
