 Gaussian 09, Revision D.01,
 Gaussian 09:  ES64L-G09RevD.01 24-Apr-2013

 ----------------------------------------------------------------------
 # opt freq=noraman b3lyp/6-311+g(d,p) pop=(npa,hirshfeld,chelpg,mbs) g
 eom=connectivity
 ----------------------------------------------------------------------

 -------------------
 Title Card Required
 -------------------
 Symbolic Z-matrix:
 Charge =  0 Multiplicity = 1

 SCF Done:  E(RB3LYP) =  -675.254467675     A.U. after   14 cycles
 SCF Done:  E(RB3LYP) =  -675.286725778     A.U. after   12 cycles
 SCF Done:  E(RB3LYP) =  -675.265747364     A.U. after   13 cycles
 SCF Done:  E(RB3LYP) =  -675.297601421     A.U. after   10 cycles
 SCF Done:  E(RB3LYP) =  -675.304205067     A.U. after   11 cycles
 SCF Done:  E(RB3LYP) =  -675.310016336     A.U. after   12 cycles
 SCF Done:  E(RB3LYP) =  -675.313009296     A.U. after   11 cycles
 SCF Done:  E(RB3LYP) =  -675.316857909     A.U. after   12 cycles
 SCF Done:  E(RB3LYP) =  -675.320001864     A.U. after   12 cycles
 SCF Done:  E(RB3LYP) =  -675.325598269     A.U. after   13 cycles
 SCF Done:  E(RB3LYP) =  -675.348272695     A.U. after   11 cycles
 SCF Done:  E(RB3LYP) =  -675.348305840     A.U. after   12 cycles
 SCF Done:  E(RB3LYP) =  -675.348388430     A.U. after   10 cycles
 SCF Done:  E(RB3LYP) =  -675.348489027     A.U. after   11 cycles
 SCF Done:  E(RB3LYP) =  -675.348499525     A.U. after    9 cycles
 SCF Done:  E(RB3LYP) =  -675.348505067     A.U. after   10 cycles
 SCF Done:  E(RB3LYP) =  -675.348505079     A.U. after    9 cycles
 SCF Done:  E(RB3LYP) =  -675.348504381     A.U. after    8 cycles
 SCF Done:  E(RB3LYP) =  -675.348504471     A.U. after    7 cycles
 Optimization completed.
    -- Stationary point found.
 Normal termination of Gaussian 09 at Tue Apr 23 13:43:32 2024.

 ----------------------------------------------------------------------
 #N Geom=AllCheck Guess=TCheck SCRF=Check GenChk RB3LYP/6-311+G(d,p) Fr
 eq
 ----------------------------------------------------------------------

 Structure from the checkpoint file:  "62.chk"
 -------------------
 Title Card Required
 -------------------
 Charge =  0 Multiplicity = 1

                         Standard orientation:
 ---------------------------------------------------------------------
 Center     Atomic      Atomic             Coordinates (Angstroms)
 Number     Number       Type             X           Y           Z
 ---------------------------------------------------------------------
      1          6           0        2.668441    0.720259    0.682182
      2          6           0        2.345920   -0.814375    0.778125
      3          6           0        0.931707   -0.981953    0.178584
      4          6           0        1.428340    1.366378    0.027652
      5          1           0        2.812430    1.146922    1.676441
      6          1           0        2.334551   -1.142172    1.819164
      7          1           0        0.986551   -1.375880   -0.846613
      8          1           0        0.299822   -1.655142    0.755826
      9          1           0        1.608913    1.575412   -1.036672
     10          1           0        1.126106    2.302455    0.495940
     11          6           0        3.959816    0.824978   -0.159719
     12          1           0        3.994548    1.736694   -0.762560
     13          6           0        3.463931   -1.527503   -0.016349
     14          1           0        3.113559   -2.439757   -0.507459
     15          1           0        4.274067   -1.817474    0.660811
     16          6           0        3.975412   -0.462602   -1.001214
     17          1           0        4.960364   -0.695627   -1.413163
     18          1           0        4.834132    0.841137    0.499338
     19          1           0        3.285421   -0.368259   -1.847508
     20          7           0        0.373154    0.368760    0.181142
     21          6           0       -0.936975    0.699688    0.010601
     22          8           0       -1.337201    1.841970   -0.132337
     23          8           0       -1.719679   -0.410612    0.038377
     24          6           0       -3.187375   -0.315199   -0.065627
     25          6           0       -3.583124    0.273510   -1.422788
     26          1           0       -4.669450    0.221890   -1.538815
     27          1           0       -3.269520    1.312601   -1.508503
     28          1           0       -3.128663   -0.302687   -2.233279
     29          6           0       -3.620688   -1.778895    0.033807
     30          1           0       -3.304839   -2.209951    0.986606
     31          1           0       -4.708699   -1.853400   -0.036389
     32          1           0       -3.180050   -2.366327   -0.774944
     33          6           0       -3.750544    0.494942    1.105397
     34          1           0       -3.407474    0.077263    2.055783
     35          1           0       -3.444938    1.538354    1.046812
     36          1           0       -4.843026    0.446394    1.088965
 ---------------------------------------------------------------------

 SCF Done:  E(RB3LYP) =  -675.348504471     A.U. after    1 cycles

 The electronic state is 1-A.
 Alpha  occ. eigenvalues --  -19.14824 -19.08214 -14.33389 -10.30760 -10.24148
 Alpha  occ. eigenvalues --  -10.20420 -10.20044 -10.18065 -10.17961 -10.17167
 Alpha  occ. eigenvalues --  -10.17099 -10.17071 -10.16223 -10.15540 -10.15525
 Alpha  occ. eigenvalues --   -1.09311  -1.00499  -0.94648  -0.84567  -0.80875
 Alpha  occ. eigenvalues --   -0.75548  -0.74399  -0.69462  -0.69212  -0.68679
 Alpha  occ. eigenvalues --   -0.66090  -0.60223  -0.57615  -0.55364  -0.53884
 Alpha  occ. eigenvalues --   -0.51467  -0.50596  -0.47483  -0.47127  -0.46616
 Alpha  occ. eigenvalues --   -0.45329  -0.44705  -0.44259  -0.41734  -0.41630
 Alpha  occ. eigenvalues --   -0.40968  -0.40058  -0.39657  -0.38966  -0.38027
 Alpha  occ. eigenvalues --   -0.36807  -0.35754  -0.34966  -0.34730  -0.34291
 Alpha  occ. eigenvalues --   -0.33791  -0.33664  -0.33278  -0.32766  -0.32616
 Alpha  occ. eigenvalues --   -0.29225  -0.26595  -0.24047
 Alpha virt. eigenvalues --   -0.00500   0.00524   0.01102   0.01831   0.02157
 Alpha virt. eigenvalues --    0.03070   0.03215   0.03826   0.04125   0.04390
 Alpha virt. eigenvalues --    0.04649   0.05140   0.05921   0.05983   0.06280

 Mulliken charges:
               1
     1  C    0.169680
     2  C    0.248859
     3  C   -0.556573
     4  C   -0.532377
     5  H    0.145999
     6  H    0.143453
     7  H    0.155574
     8  H    0.172218
     9  H    0.163964
    10  H    0.180335
    11  C   -0.373727
    12  H    0.147135
    13  C   -0.373736
    14  H    0.144750
    15  H    0.139862
    16  C   -0.335515
    17  H    0.149263
    18  H    0.140912
    19  H    0.149199
    20  N   -0.155914
    21  C    0.311909
    22  O   -0.315044
    23  O    0.041451
    24  C   -0.208724
    25  C   -0.326356
    26  H    0.136178
    27  H    0.185410
    28  H    0.142482
    29  C   -0.453237
    30  H    0.154231
    31  H    0.145366
    32  H    0.155154
    33  C   -0.358936
    34  H    0.143704
    35  H    0.186536
    36  H    0.136516
 Sum of Mulliken charges =   0.00000

 Dipole moment (field-independent basis, Debye):
    X=              1.3905    Y=             -2.2432    Z=              0.2727  Tot=              2.6533
 Quadrupole moment (field-independent basis, Debye-Ang):
   XX=            -84.2612   YY=            -98.9550   ZZ=            -92.8267
   XY=              4.1703   XZ=              0.5924   YZ=              0.4995

  Exact polarizability: 184.898  -0.973 144.760  -1.560  -0.521 127.599
 Approx polarizability: 218.026  -4.579 214.932   0.786  -2.128 191.068

 ESP charges:
               1
     1  C    0.143452
     2  C    0.115561
     3  C    0.074224
     4  C    0.076634
     5  H   -0.032773
     6  H   -0.027027
     7  H    0.038897
     8  H    0.028192
     9  H    0.033307
    10  H    0.026831
    11  C   -0.113972
    12  H    0.000706
    13  C   -0.102821
    14  H   -0.004820
    15  H    0.024473
    16  C    0.118057
    17  H   -0.020576
    18  H    0.024834
    19  H   -0.021216
    20  N   -0.426591
    21  C    0.859904
    22  O   -0.623868
    23  O   -0.598599
    24  C    0.829137
    25  C   -0.353039
    26  H    0.057731
    27  H    0.094204
    28  H    0.066237
    29  C   -0.394466
    30  H    0.096834
    31  H    0.073886
    32  H    0.081288
    33  C   -0.394483
    34  H    0.074195
    35  H    0.109743
    36  H    0.065922
 Sum of ESP charges =   0.00000

 Summary of Natural Population Analysis:

                                       Natural Population
                Natural  -----------------------------------------------
    Atom  No    Charge         Core      Valence    Rydberg      Total
 -----------------------------------------------------------------------
      C    1   -0.22377      1.99921     4.20601    0.01854     6.22377
      C    2   -0.22315      1.99921     4.20537    0.01857     6.22315
      C    3   -0.16061      1.99925     4.14285    0.01851     6.16061
      C    4   -0.15997      1.99925     4.14141    0.01930     6.15997
      H    5    0.20982      0.00000     0.78875    0.00143     0.79018
      H    6    0.20900      0.00000     0.78955    0.00145     0.79100
      H    7    0.17933      0.00000     0.81842    0.00225     0.82067
      H    8    0.21650      0.00000     0.78187    0.00164     0.78350
      H    9    0.18078      0.00000     0.81709    0.00213     0.81922
      H   10    0.22138      0.00000     0.77690    0.00172     0.77862
      C   11   -0.38514      1.99927     4.36996    0.01590     6.38514
      H   12    0.20525      0.00000     0.79313    0.00162     0.79475
      C   13   -0.38549      1.99927     4.37027    0.01594     6.38549
      H   14    0.20388      0.00000     0.79447    0.00166     0.79612
      H   15    0.19793      0.00000     0.80025    0.00182     0.80207
      C   16   -0.39224      1.99931     4.37823    0.01471     6.39224
      H   17    0.20556      0.00000     0.79282    0.00162     0.79444
      H   18    0.19768      0.00000     0.80050    0.00181     0.80232
      H   19    0.19116      0.00000     0.80671    0.00213     0.80884
      N   20   -0.52804      1.99926     5.50740    0.02138     7.52804
      C   21    0.93839      1.99930     3.01414    0.04817     5.06161
      O   22   -0.67026      1.99975     6.66053    0.00999     8.67026
      O   23   -0.60848      1.99970     6.58950    0.01928     8.60848
      C   24    0.27240      1.99911     3.70575    0.02274     5.72760
      C   25   -0.60485      1.99923     4.59439    0.01122     6.60485
      H   26    0.20322      0.00000     0.79550    0.00128     0.79678
      H   27    0.23311      0.00000     0.76538    0.00150     0.76689
      H   28    0.20354      0.00000     0.79505    0.00141     0.79646
      C   29   -0.57986      1.99924     4.56868    0.01195     6.57986
      H   30    0.20695      0.00000     0.79159    0.00146     0.79305
      H   31    0.20360      0.00000     0.79521    0.00119     0.79640
      H   32    0.20750      0.00000     0.79104    0.00145     0.79250
      C   33   -0.60537      1.99924     4.59491    0.01122     6.60537
      H   34    0.20395      0.00000     0.79465    0.00140     0.79605
      H   35    0.23277      0.00000     0.76567    0.00156     0.76723
      H   36    0.20351      0.00000     0.79517    0.00132     0.79649
 =======================================================================
   * Total *    0.00000     29.98961    85.69911    0.31128   116.00000

                      1                      2                      3
                      A                      A                      A
 Frequencies --     30.9109                47.1576                71.7093
 Red. masses --      3.5015                 3.0030                 4.0567
 Frc consts  --      0.0020                 0.0039                 0.0123
 IR Inten    --      0.4164                 0.1045                 2.7144

                      4                      5                      6
                      A                      A                      A
 Frequencies --     90.5205               102.5482               141.3122
 Red. masses --      3.1406                 2.8947                 3.4448
 Frc consts  --      0.0152                 0.0179                 0.0405
 IR Inten    --      0.3769                 0.5380                 0.4153

                      7                      8                      9
                      A                      A                      A
 Frequencies --    168.7629               206.8764               219.0733
 Red. masses --      3.5131                 1.1119                 3.2647
 Frc consts  --      0.0590                 0.0280                 0.0923
 IR Inten    --      2.7242                 0.0697                 2.7189

                     10                     11                     12
                      A                      A                      A
 Frequencies --    236.0005               247.1239               266.4288
 Red. masses --      2.1382                 1.0717                 2.6261
 Frc consts  --      0.0702                 0.0386                 0.1098
 IR Inten    --      5.6536                 0.0969                 0.7943

                     13                     14                     15
                      A                      A                      A
 Frequencies --    272.3088               325.0878               349.7447
 Red. masses --      1.0686                 3.0171                 2.5173
 Frc consts  --      0.0467                 0.1879                 0.1814
 IR Inten    --      0.0516                 7.0335                 1.1753

                     16                     17                     18
                      A                      A                      A
 Frequencies --    364.7348               397.4061               418.1857
 Red. masses --      2.7492                 2.1331                 2.5378
 Frc consts  --      0.2155                 0.1985                 0.2615
 IR Inten    --      6.9578                 1.5319                 1.2813

                     19                     20                     21
                      A                      A                      A
 Frequencies --    458.6084               470.5901               535.0678
 Red. masses --      2.9061                 2.6165                 3.4571
 Frc consts  --      0.3601                 0.3414                 0.5831
 IR Inten    --      2.7226                 0.8553                 5.5949

                     22                     23                     24
                      A                      A                      A
 Frequencies --    569.8527               580.2035               703.7989
 Red. masses --      1.9529                 4.0633                 2.8001
 Frc consts  --      0.3736                 0.8059                 0.8172
 IR Inten    --      2.1302                 3.2719                 0.2499

                     25                     26                     27
                      A                      A                      A
 Frequencies --    723.9643               769.8788               776.2803
 Red. masses --      4.4396                 4.0629                 9.9345
 Frc consts  --      1.3710                 1.4188                 3.5272
 IR Inten    --      2.1271                 2.3586                16.6656

                     28                     29                     30
                      A                      A                      A
 Frequencies --    797.4541               819.8116               853.5865
 Red. masses --      3.7864                 1.7100                 3.8648
 Frc consts  --      1.4187                 0.6771                 1.6591
 IR Inten    --      3.6850                 0.6544                 0.4525

                     31                     32                     33
                      A                      A                      A
 Frequencies --    869.5147               889.9170               907.0232
 Red. masses --      2.5371                 3.7122                 2.5252
 Frc consts  --      1.1302                 1.7321                 1.2240
 IR Inten    --     23.6676                37.6452                 1.4829

                     34                     35                     36
                      A                      A                      A
 Frequencies --    923.6257               926.3186               930.1127
 Red. masses --      1.6480                 1.6632                 1.9597
 Frc consts  --      0.8283                 0.8409                 0.9989
 IR Inten    --      0.0974                 0.9017                 5.4068

                     37                     38                     39
                      A                      A                      A
 Frequencies --    957.4539               969.3325               972.5581
 Red. masses --      1.5906                 1.2009                 2.1693
 Frc consts  --      0.8591                 0.6648                 1.2089
 IR Inten    --      8.4895                 0.1049                 1.5868

                     40                     41                     42
                      A                      A                      A
 Frequencies --   1016.7377              1022.8726              1048.4766
 Red. masses --      1.7640                 1.4417                 2.0939
 Frc consts  --      1.0744                 0.8887                 1.3562
 IR Inten    --      1.3303                 0.1615                 0.9494

                     43                     44                     45
                      A                      A                      A
 Frequencies --   1051.2048              1057.0110              1067.0379
 Red. masses --      1.4085                 1.4253                 1.5838
 Frc consts  --      0.9170                 0.9383                 1.0624
 IR Inten    --      0.4857                 0.1626                 1.7607

                     46                     47                     48
                      A                      A                      A
 Frequencies --   1115.7828              1136.9568              1166.5786
 Red. masses --      3.4653                 3.1029                 1.2787
 Frc consts  --      2.5419                 2.3633                 1.0253
 IR Inten    --    196.1128                10.2652                 0.0847

                     49                     50                     51
                      A                      A                      A
 Frequencies --   1188.3330              1190.4701              1213.8417
 Red. masses --      1.5148                 1.8461                 1.8120
 Frc consts  --      1.2603                 1.5415                 1.5730
 IR Inten    --      4.1106               403.2144                 2.5913

                     52                     53                     54
                      A                      A                      A
 Frequencies --   1223.4306              1246.4623              1255.7653
 Red. masses --      1.8608                 1.5400                 1.6558
 Frc consts  --      1.6410                 1.4097                 1.5384
 IR Inten    --      3.3282                27.4842                95.5320

                     55                     56                     57
                      A                      A                      A
 Frequencies --   1263.8565              1276.4662              1278.6104
 Red. masses --      2.7282                 1.3264                 2.6854
 Frc consts  --      2.5676                 1.2734                 2.5866
 IR Inten    --     15.9292                 3.1390                15.7222

                     58                     59                     60
                      A                      A                      A
 Frequencies --   1311.4070              1326.6680              1330.8607
 Red. masses --      1.3428                 1.3488                 1.4047
 Frc consts  --      1.3607                 1.3987                 1.4659
 IR Inten    --      1.4326                 0.7443                12.1295

                     61                     62                     63
                      A                      A                      A
 Frequencies --   1331.2853              1345.4631              1349.6885
 Red. masses --      1.4080                 1.2980                 1.3495
 Frc consts  --      1.4703                 1.3844                 1.4484
 IR Inten    --      8.5647                 0.0684                 5.5881

                     64                     65                     66
                      A                      A                      A
 Frequencies --   1379.7111              1383.3866              1397.4807
 Red. masses --      1.4615                 1.5118                 1.2740
 Frc consts  --      1.6392                 1.7047                 1.4659
 IR Inten    --      9.2206                 7.6235                22.2513

                     67                     68                     69
                      A                      A                      A
 Frequencies --   1400.2802              1425.1701              1426.2695
 Red. masses --      1.2889                 4.4985                 1.2920
 Frc consts  --      1.4891                 5.3834                 1.5485
 IR Inten    --     19.9786               432.4590               111.7062

                     70                     71                     72
                      A                      A                      A
 Frequencies --   1470.0968              1489.2062              1491.5620
 Red. masses --      1.0453                 1.0895                 1.0510
 Frc consts  --      1.3310                 1.4236                 1.3776
 IR Inten    --      0.2391                 5.0775                 1.7927

                     73                     74                     75
                      A                      A                      A
 Frequencies --   1492.3235              1493.5302              1495.3517
 Red. masses --      1.0462                 1.0827                 1.0655
 Frc consts  --      1.3728                 1.4230                 1.4037
 IR Inten    --      0.4844                 3.8589                21.0629

                     76                     77                     78
                      A                      A                      A
 Frequencies --   1505.3357              1507.5451              1517.6023
 Red. masses --      1.0521                 1.1045                 1.0769
 Frc consts  --      1.4047                 1.4789                 1.4614
 IR Inten    --      2.0700                 7.2801                 0.8422

                     79                     80                     81
                      A                      A                      A
 Frequencies --   1527.7166              1529.2088              1740.0399
 Red. masses --      1.0603                 1.0879                11.0194
 Frc consts  --      1.4580                 1.4989                19.6575
 IR Inten    --     32.8383                 4.6546               481.6046

                     82                     83                     84
                      A                      A                      A
 Frequencies --   2975.2234              2978.9640              3022.2716
 Red. masses --      1.0733                 1.0749                 1.0707
 Frc consts  --      5.5979                 5.6203                 5.7624
 IR Inten    --     33.0320                56.1413                19.6763

                     85                     86                     87
                      A                      A                      A
 Frequencies --   3027.3203              3030.2896              3031.7175
 Red. masses --      1.0635                 1.0608                 1.0375
 Frc consts  --      5.7428                 5.7392                 5.6186
 IR Inten    --     31.1997                32.8157                23.7776

                     88                     89                     90
                      A                      A                      A
 Frequencies --   3031.9439              3040.2178              3057.0943
 Red. masses --      1.0361                 1.0375                 1.0859
 Frc consts  --      5.6116                 5.6502                 5.9793
 IR Inten    --     13.5755                27.2885                24.3430

                     91                     92                     93
                      A                      A                      A
 Frequencies --   3069.7313              3070.5056              3072.8213
 Red. masses --      1.0973                 1.0989                 1.0888
 Frc consts  --      6.0923                 6.1044                 6.0572
 IR Inten    --     18.2281                19.3313                43.4896

                     94                     95                     96
                      A                      A                      A
 Frequencies --   3082.8414              3090.2530              3092.3811
 Red. masses --      1.1010                 1.1017                 1.1016
 Frc consts  --      6.1654                 6.1986                 6.2064
 IR Inten    --     83.6836                 9.2390                19.1655

                     97                     98                     99
                      A                      A                      A
 Frequencies --   3106.4131              3106.9433              3109.4661
 Red. masses --      1.1025                 1.1018                 1.0898
 Frc consts  --      6.2682                 6.2666                 6.2083
 IR Inten    --     33.7902                48.8606                17.2740

                    100                    101                    102
                      A                      A                      A
 Frequencies --   3113.6290              3138.2434              3141.1188
 Red. masses --      1.0910                 1.0993                 1.0987
 Frc consts  --      6.2317                 6.3790                 6.3871
 IR Inten    --     19.8975                 0.4385                11.4378

 - Thermochemistry -
 -------------------
 Temperature   298.150 Kelvin.  Pressure   1.00000 Atm.
 Atom     1 has atomic number  6 and mass  12.00000

 Molecular mass:   211.15723 amu.
 Principal axes and moments of inertia in atomic units:
                           1         2         3
     Eigenvalues --  1217.168606260.248126770.42094
           X            0.99999   0.00440  -0.00166
           Y           -0.00440   0.99999   0.00289
           Z            0.00168  -0.00288   0.99999
 This molecule is an asymmetric top.
 Rotational symmetry number  1.
 Warning -- assumption of classical behavior for rotation
           may cause significant error
 Rotational temperatures (Kelvin)      0.07116     0.01384     0.01279
 Rotational constants (GHZ):           1.48274     0.28829     0.26656
 Zero-point vibrational energy     838805.4 (Joules/Mol)
                                  200.47931 (Kcal/Mol)
 Warning -- explicit consideration of  23 degrees of freedom as
           vibrations may cause significant error
 Vibrational temperatures:     44.47    67.85   103.17   130.24   147.54
          (Kelvin)            203.32   242.81   297.65   315.20   339.55
                              355.56   383.33   391.79   467.73   503.20
                              524.77   571.78   601.68   659.83   677.07
                              769.84   819.89   834.78  1012.61  1041.62
                             1107.68  1116.89  1147.36  1179.52  1228.12
                             1251.04  1280.39  1305.00  1328.89  1332.76
                             1338.22  1377.56  1394.65  1399.29  1462.86
                             1471.68  1508.52  1512.45  1520.80  1535.23
                             1605.36  1635.83  1678.44  1709.74  1712.82
                             1746.45  1760.24  1793.38  1806.76  1818.41
                             1836.55  1839.63  1886.82  1908.78  1914.81
                             1915.42  1935.82  1941.90  1985.09  1990.38
                             2010.66  2014.69  2050.50  2052.08  2115.14
                             2142.63  2146.02  2147.12  2148.85  2151.47
                             2165.84  2169.02  2183.49  2198.04  2200.19
                             2503.53  4280.68  4286.06  4348.37  4355.63
                             4359.91  4361.96  4362.29  4374.19  4398.47
                             4416.65  4417.77  4421.10  4435.52  4446.18
                             4449.24  4469.43  4470.19  4473.82  4479.81
                             4515.23  4519.36

 Zero-point correction=                           0.319484 (Hartree/Particle)
 Thermal correction to Energy=                    0.334912
 Thermal correction to Enthalpy=                  0.335856
 Thermal correction to Gibbs Free Energy=         0.276580
 Sum of electronic and zero-point Energies=           -675.029020
 Sum of electronic and thermal Energies=              -675.013592
 Sum of electronic and thermal Enthalpies=            -675.012648
 Sum of electronic and thermal Free Energies=         -675.071924

                     E (Thermal)             CV                S
                      KCal/Mol        Cal/Mol-Kelvin    Cal/Mol-Kelvin
 Total                  210.160             59.584            124.757
 Electronic               0.000              0.000              0.000
 Translational            0.889              2.981             41.946
 Rotational               0.889              2.981             32.312
 Vibrational            208.383             53.623             50.499
 Vibration     1          0.594              1.984              5.770
 Vibration     2          0.595              1.979              4.933
 Vibration     3          0.598              1.967              4.106
 Vibration     4          0.602              1.956              3.649
 Vibration     5          0.605              1.947              3.405
 Vibration     6          0.615              1.912              2.786
 Vibration     7          0.625              1.881              2.449
 Vibration     8          0.641              1.830              2.071
 Vibration     9          0.647              1.812              1.967
 Vibration    10          0.655              1.786              1.833
 Vibration    11          0.661              1.768              1.751
 Vibration    12          0.672              1.735              1.619
 Vibration    13          0.675              1.724              1.582
 Vibration    14          0.709              1.625              1.284
 Vibration    15          0.727              1.576              1.167
 Vibration    16          0.738              1.545              1.102
 Vibration    17          0.764              1.476              0.972
 Vibration    18          0.781              1.431              0.898
 Vibration    19          0.817              1.342              0.770
 Vibration    20          0.828              1.315              0.736
 Vibration    21          0.890              1.172              0.576
 Vibration    22          0.926              1.096              0.505
 Vibration    23          0.937              1.074              0.485

 Optimization completed.
    -- Stationary point found.
 Normal termination of Gaussian 09 at Tue Apr 23 13:54:13 2024.
