 Gaussian 09, Revision D.01,
 Gaussian 09:  ES64L-G09RevD.01 24-Apr-2013

 ----------------------------------------------------------------------
 # opt freq b3lyp/6-311+g(d,p) pop=(npa,hirshfeld,chelpg,mbs) geom=conn
 ectivity
 ----------------------------------------------------------------------

 --------
 Chart8_2
 --------
 Symbolic Z-matrix:
 Charge =  0 Multiplicity = 1

 SCF Done:  E(RB3LYP) =  -680.345842262     A.U. after   13 cycles
 SCF Done:  E(RB3LYP) =  -680.355111719     A.U. after   13 cycles
 SCF Done:  E(RB3LYP) =  -680.356709948     A.U. after   12 cycles
 SCF Done:  E(RB3LYP) =  -680.356962351     A.U. after   12 cycles
 SCF Done:  E(RB3LYP) =  -680.357017270     A.U. after   11 cycles
 SCF Done:  E(RB3LYP) =  -680.357034443     A.U. after   11 cycles
 SCF Done:  E(RB3LYP) =  -680.357038692     A.U. after   10 cycles
 SCF Done:  E(RB3LYP) =  -680.357039354     A.U. after    9 cycles
 SCF Done:  E(RB3LYP) =  -680.357039469     A.U. after    8 cycles
 SCF Done:  E(RB3LYP) =  -680.357039506     A.U. after    8 cycles
 Optimization completed.
    -- Stationary point found.
 Normal termination of Gaussian 09 at Wed Jul 28 11:34:12 2021.

 ----------------------------------------------------------------------
 #N Geom=AllCheck Guess=TCheck SCRF=Check GenChk RB3LYP/6-311+G(d,p) Fr
 eq
 ----------------------------------------------------------------------

 Structure from the checkpoint file:  "//home/sweav003/CHB/CHActivation_Mkhalid/OtherCharges/G09-Chart8_2.com.o9461694.tmp/Gau-185003.chk"
 --------
 Chart8_2
 --------
 Charge =  0 Multiplicity = 1

                         Standard orientation:
 ---------------------------------------------------------------------
 Center     Atomic      Atomic             Coordinates (Angstroms)
 Number     Number       Type             X           Y           Z
 ---------------------------------------------------------------------
      1          6           0        2.849570    0.772855    0.910076
      2          6           0        1.530359    0.420400    1.189323
      3          6           0        0.776085   -0.349431    0.293436
      4          6           0        2.713380   -0.406538   -1.180948
      5          6           0        3.448863    0.359806   -0.278062
      6          1           0        3.410046    1.366070    1.624593
      7          1           0        1.077999    0.743279    2.122025
      8          1           0        3.167212   -0.734297   -2.110017
      9          1           0        4.475731    0.629670   -0.497138
     10         14           0       -1.881446    0.339770   -0.440344
     11          1           0       -1.695662   -0.043187   -1.871552
     12          6           0       -3.666636   -0.035080    0.055051
     13          1           0       -4.362327    0.578652   -0.525328
     14          1           0       -3.925827   -1.082182   -0.122532
     15          1           0       -3.841800    0.179526    1.114100
     16          6           0       -1.521134    2.179284   -0.239177
     17          1           0       -1.664037    2.501650    0.797054
     18          1           0       -0.492569    2.414562   -0.523698
     19          1           0       -2.189516    2.775893   -0.867206
     20          6           0       -0.663041   -0.710219    0.606012
     21          6           0       -0.950710   -2.222899    0.482151
     22          1           0       -0.850472   -0.420490    1.648062
     23          1           0       -1.957591   -2.462658    0.834256
     24          1           0       -0.874449   -2.571795   -0.551201
     25          1           0       -0.241106   -2.804269    1.078924
     26          6           0        1.394075   -0.754757   -0.899087
     27          1           0        0.839751   -1.347736   -1.618182
 ---------------------------------------------------------------------

 SCF Done:  E(RB3LYP) =  -680.357039506     A.U. after    1 cycles

 The electronic state is 1-A.
 Alpha  occ. eigenvalues --  -66.08305 -10.18491 -10.17469 -10.17460 -10.17206
 Alpha  occ. eigenvalues --  -10.17192 -10.17150 -10.16934 -10.16626 -10.15061
 Alpha  occ. eigenvalues --  -10.14723  -5.25648  -3.61480  -3.61439  -3.61419
 Alpha  occ. eigenvalues --   -0.86017  -0.78818  -0.74707  -0.72634  -0.70582
 Alpha  occ. eigenvalues --   -0.68271  -0.63634  -0.60679  -0.57674  -0.51496
 Alpha  occ. eigenvalues --   -0.48974  -0.46627  -0.45052  -0.43292  -0.42410
 Alpha  occ. eigenvalues --   -0.41940  -0.41430  -0.40545  -0.39586  -0.39420
 Alpha  occ. eigenvalues --   -0.38887  -0.36922  -0.36407  -0.34462  -0.33959
 Alpha  occ. eigenvalues --   -0.31507  -0.30847  -0.29972  -0.25581  -0.23821
 Alpha virt. eigenvalues --   -0.01588  -0.01377  -0.00503   0.00696   0.00871
 Alpha virt. eigenvalues --    0.01583   0.02753   0.03437   0.03972   0.04671
 Alpha virt. eigenvalues --    0.04816   0.05523   0.05882   0.06208   0.06639

 Mulliken charges:
               1
     1  C   -0.288644
     2  C   -0.013183
     3  C    0.994097
     4  C   -0.284907
     5  C   -0.125433
     6  H    0.122595
     7  H    0.109097
     8  H    0.122933
     9  H    0.122832
    10  Si   1.197990
    11  H   -0.143198
    12  C   -0.844863
    13  H    0.162103
    14  H    0.162111
    15  H    0.166643
    16  C   -0.884359
    17  H    0.168469
    18  H    0.186797
    19  H    0.161814
    20  C   -0.495402
    21  C   -0.699770
    22  H    0.163409
    23  H    0.142369
    24  H    0.148306
    25  H    0.144453
    26  C   -0.617649
    27  H    0.121389
 Sum of Mulliken charges =   0.00000

 Dipole moment (field-independent basis, Debye):
    X=             -0.5562    Y=              0.1136    Z=              0.5150  Tot=              0.7665
 Quadrupole moment (field-independent basis, Debye-Ang):
   XX=            -74.9280   YY=            -78.5345   ZZ=            -75.6006
   XY=              1.2897   XZ=             -1.7710   YZ=              2.4019

  Exact polarizability: 177.280  10.954 126.167  -5.268   9.087 126.130
 Approx polarizability: 238.023  20.227 183.036 -10.666  24.718 211.546

 ESP charges:
               1
     1  C   -0.028842
     2  C   -0.214628
     3  C    0.262404
     4  C   -0.024628
     5  C   -0.161257
     6  H    0.077822
     7  H    0.089885
     8  H    0.075846
     9  H    0.097790
    10  Si   0.704819
    11  H   -0.220811
    12  C   -0.392312
    13  H    0.078117
    14  H    0.070017
    15  H    0.069775
    16  C   -0.422746
    17  H    0.078593
    18  H    0.050786
    19  H    0.098489
    20  C   -0.179382
    21  C   -0.105604
    22  H    0.046956
    23  H    0.047504
    24  H    0.026080
    25  H    0.004162
    26  C   -0.257071
    27  H    0.128236
 Sum of ESP charges =   0.00000

 Summary of Natural Population Analysis:

                                       Natural Population
                Natural  -----------------------------------------------
    Atom  No    Charge         Core      Valence    Rydberg      Total
 -----------------------------------------------------------------------
      C    1   -0.19677      1.99916     4.17925    0.01836     6.19677
      C    2   -0.20906      1.99904     4.19336    0.01666     6.20906
      C    3   -0.02519      1.99903     4.00563    0.02053     6.02519
      C    4   -0.19542      1.99917     4.17772    0.01853     6.19542
      C    5   -0.21775      1.99915     4.20015    0.01845     6.21775
      H    6    0.20457      0.00000     0.79391    0.00152     0.79543
      H    7    0.20138      0.00000     0.79697    0.00165     0.79862
      H    8    0.20438      0.00000     0.79407    0.00155     0.79562
      H    9    0.20520      0.00000     0.79339    0.00141     0.79480
     Si   10    1.39007      9.99848     2.58175    0.02970    12.60993
      H   11   -0.18869      0.00000     1.18490    0.00379     1.18869
      C   12   -1.06876      1.99936     5.05945    0.00994     7.06876
      H   13    0.22998      0.00000     0.76905    0.00097     0.77002
      H   14    0.22877      0.00000     0.77028    0.00095     0.77123
      H   15    0.22560      0.00000     0.77328    0.00113     0.77440
      C   16   -1.06971      1.99936     5.06073    0.00962     7.06971
      H   17    0.22528      0.00000     0.77354    0.00117     0.77472
      H   18    0.23864      0.00000     0.76037    0.00098     0.76136
      H   19    0.22858      0.00000     0.77047    0.00095     0.77142
      C   20   -0.65815      1.99917     4.63396    0.02501     6.65815
      C   21   -0.56636      1.99936     4.55647    0.01053     6.56636
      H   22    0.21606      0.00000     0.78144    0.00250     0.78394
      H   23    0.20150      0.00000     0.79721    0.00129     0.79850
      H   24    0.19732      0.00000     0.80131    0.00137     0.80268
      H   25    0.20517      0.00000     0.79328    0.00155     0.79483
      C   26   -0.21300      1.99904     4.19795    0.01602     6.21300
      H   27    0.20634      0.00000     0.79212    0.00155     0.79366
 =======================================================================
   * Total *    0.00000     29.99031    59.79201    0.21768    90.00000

                      1                      2                      3
                      A                      A                      A
 Frequencies --     37.8371                47.9308                74.0943
 Red. masses --      3.2390                 3.0772                 3.6694
 Frc consts  --      0.0027                 0.0042                 0.0119
 IR Inten    --      0.1299                 0.0346                 0.0697

                      4                      5                      6
                      A                      A                      A
 Frequencies --    143.0169               149.1951               161.2139
 Red. masses --      1.1435                 1.1718                 2.0945
 Frc consts  --      0.0138                 0.0154                 0.0321
 IR Inten    --      0.0541                 0.0645                 0.6132

                      7                      8                      9
                      A                      A                      A
 Frequencies --    187.2719               196.1817               220.6877
 Red. masses --      2.0832                 2.2081                 1.3192
 Frc consts  --      0.0430                 0.0501                 0.0379
 IR Inten    --      0.5959                 0.4482                 0.1526

                     10                     11                     12
                      A                      A                      A
 Frequencies --    239.2853               263.3840               280.7394
 Red. masses --      2.6115                 3.3029                 3.1716
 Frc consts  --      0.0881                 0.1350                 0.1473
 IR Inten    --      1.1008                 2.2732                 1.2960

                     13                     14                     15
                      A                      A                      A
 Frequencies --    404.5043               413.7456               526.2631
 Red. masses --      3.7661                 2.8910                 3.1372
 Frc consts  --      0.3631                 0.2916                 0.5119
 IR Inten    --      0.5605                 0.0506                19.6762

                     16                     17                     18
                      A                      A                      A
 Frequencies --    552.6250               615.7849               635.1859
 Red. masses --      2.7798                 2.9317                 5.1027
 Frc consts  --      0.5002                 0.6550                 1.2130
 IR Inten    --      3.4302                 1.5316                 0.4261

                     19                     20                     21
                      A                      A                      A
 Frequencies --    637.3387               674.3276               700.4885
 Red. masses --      1.1010                 3.3794                 2.2747
 Frc consts  --      0.2635                 0.9054                 0.6576
 IR Inten    --      8.5561                15.8169                11.4596

                     22                     23                     24
                      A                      A                      A
 Frequencies --    711.5800               744.1294               769.0362
 Red. masses --      1.7027                 1.4549                 1.7742
 Frc consts  --      0.5080                 0.4747                 0.6182
 IR Inten    --     40.2341                29.0700                11.6867

                     25                     26                     27
                      A                      A                      A
 Frequencies --    792.1073               798.2824               853.6120
 Red. masses --      1.8992                 2.7189                 1.2515
 Frc consts  --      0.7021                 1.0208                 0.5373
 IR Inten    --     28.7868                19.8956                 0.4692

                     28                     29                     30
                      A                      A                      A
 Frequencies --    868.1874               901.6239               908.5552
 Red. masses --      1.4389                 1.3576                 1.2351
 Frc consts  --      0.6390                 0.6502                 0.6007
 IR Inten    --     60.2880               191.1206                99.3893

                     31                     32                     33
                      A                      A                      A
 Frequencies --    923.6752               976.8085               983.5231
 Red. masses --      1.4658                 1.6615                 1.4034
 Frc consts  --      0.7368                 0.9340                 0.7998
 IR Inten    --      9.4262                 0.9158                 0.0838

                     34                     35                     36
                      A                      A                      A
 Frequencies --   1000.5001              1015.2769              1029.0166
 Red. masses --      1.2818                 5.1736                 1.9627
 Frc consts  --      0.7560                 3.1420                 1.2245
 IR Inten    --      0.0449                 1.5641                18.4027

                     37                     38                     39
                      A                      A                      A
 Frequencies --   1052.8844              1069.7158              1114.1450
 Red. masses --      2.2202                 1.6175                 1.6553
 Frc consts  --      1.4501                 1.0905                 1.2106
 IR Inten    --      7.0955                 5.3188                 7.0310

                     40                     41                     42
                      A                      A                      A
 Frequencies --   1180.8910              1198.9694              1206.7494
 Red. masses --      1.1102                 1.5193                 1.1402
 Frc consts  --      0.9121                 1.2868                 0.9783
 IR Inten    --      0.1049                 4.6558                 1.4590

                     43                     44                     45
                      A                      A                      A
 Frequencies --   1218.6271              1295.1978              1299.5841
 Red. masses --      2.5554                 1.2529                 1.8428
 Frc consts  --      2.2359                 1.2383                 1.8337
 IR Inten    --     19.2884                31.3774                 4.4552

                     46                     47                     48
                      A                      A                      A
 Frequencies --   1302.7235              1344.3859              1370.2016
 Red. masses --      1.2570                 2.7463                 1.2785
 Frc consts  --      1.2569                 2.9245                 1.4142
 IR Inten    --     18.9058                 0.2104                 1.3447

                     49                     50                     51
                      A                      A                      A
 Frequencies --   1413.2532              1459.2059              1460.2094
 Red. masses --      1.1930                 1.0534                 1.0518
 Frc consts  --      1.4039                 1.3216                 1.3213
 IR Inten    --      2.5519                 1.1891                 1.6207

                     52                     53                     54
                      A                      A                      A
 Frequencies --   1467.2779              1472.8144              1481.0614
 Red. masses --      1.0485                 1.0521                 2.1346
 Frc consts  --      1.3300                 1.3446                 2.7587
 IR Inten    --      5.0488                10.1927                 4.4612

                     55                     56                     57
                      A                      A                      A
 Frequencies --   1500.8897              1504.4230              1524.1228
 Red. masses --      1.0570                 1.0489                 2.0897
 Frc consts  --      1.4029                 1.3987                 2.8600
 IR Inten    --      8.3287                 5.5377                20.7706

                     58                     59                     60
                      A                      A                      A
 Frequencies --   1617.8045              1639.2633              2181.8500
 Red. masses --      5.3471                 5.5088                 1.0401
 Frc consts  --      8.2455                 8.7217                 2.9173
 IR Inten    --      1.6629                17.5171               117.0972

                     61                     62                     63
                      A                      A                      A
 Frequencies --   3002.9612              3021.2381              3022.1702
 Red. masses --      1.0820                 1.0351                 1.0354
 Frc consts  --      5.7488                 5.5666                 5.5719
 IR Inten    --     13.7827                17.4188                31.9083

                     64                     65                     66
                      A                      A                      A
 Frequencies --   3023.6000              3080.1300              3087.5302
 Red. masses --      1.0352                 1.1011                 1.1001
 Frc consts  --      5.5761                 6.1550                 6.1789
 IR Inten    --      5.7002                27.0314                 1.3930

                     67                     68                     69
                      A                      A                      A
 Frequencies --   3089.4376              3089.7315              3098.2420
 Red. masses --      1.1009                 1.0998                 1.0997
 Frc consts  --      6.1911                 6.1861                 6.2197
 IR Inten    --     19.1010                37.2856                12.3987

                     70                     71                     72
                      A                      A                      A
 Frequencies --   3103.8804              3152.1226              3159.9978
 Red. masses --      1.0999                 1.0861                 1.0862
 Frc consts  --      6.2432                 6.3581                 6.3904
 IR Inten    --     11.4379                 8.2006                 0.2969

                     73                     74                     75
                      A                      A                      A
 Frequencies --   3169.7993              3177.7170              3187.8535
 Red. masses --      1.0904                 1.0934                 1.0979
 Frc consts  --      6.4553                 6.5049                 6.5738
 IR Inten    --     13.9496                30.4835                14.9725

 - Thermochemistry -
 -------------------
 Temperature   298.150 Kelvin.  Pressure   1.00000 Atm.
 Atom     1 has atomic number  6 and mass  12.00000

 Molecular mass:   164.10213 amu.
 Principal axes and moments of inertia in atomic units:
                           1         2         3
     Eigenvalues --  1032.662433197.836923552.95408
           X            0.99998   0.00431  -0.00384
           Y           -0.00427   0.99991   0.01273
           Z            0.00390  -0.01271   0.99991
 This molecule is an asymmetric top.
 Rotational symmetry number  1.
 Warning -- assumption of classical behavior for rotation
           may cause significant error
 Rotational temperatures (Kelvin)      0.08387     0.02709     0.02438
 Rotational constants (GHZ):           1.74766     0.56436     0.50796
 Zero-point vibrational energy     599805.7 (Joules/Mol)
                                  143.35700 (Kcal/Mol)
 Warning -- explicit consideration of  17 degrees of freedom as
           vibrations may cause significant error
 Vibrational temperatures:     54.44    68.96   106.61   205.77   214.66
          (Kelvin)            231.95   269.44   282.26   317.52   344.28
                              378.95   403.92   581.99   595.29   757.17
                              795.10   885.98   913.89   916.99   970.21
                             1007.85  1023.80  1070.63  1106.47  1139.66
                             1148.55  1228.16  1249.13  1297.23  1307.21
                             1328.96  1405.41  1415.07  1439.49  1460.76
                             1480.52  1514.86  1539.08  1603.00  1699.04
                             1725.05  1736.24  1753.33  1863.50  1869.81
                             1874.33  1934.27  1971.41  2033.35  2099.47
                             2100.91  2111.08  2119.05  2130.91  2159.44
                             2164.53  2192.87  2327.66  2358.53  3139.19
                             4320.59  4346.88  4348.22  4350.28  4431.61
                             4442.26  4445.01  4445.43  4457.67  4465.79
                             4535.20  4546.53  4560.63  4572.02  4586.60

 Zero-point correction=                           0.228454 (Hartree/Particle)
 Thermal correction to Energy=                    0.241623
 Thermal correction to Enthalpy=                  0.242567
 Thermal correction to Gibbs Free Energy=         0.188614
 Sum of electronic and zero-point Energies=           -680.128586
 Sum of electronic and thermal Energies=              -680.115417
 Sum of electronic and thermal Enthalpies=            -680.114473
 Sum of electronic and thermal Free Energies=         -680.168426

                     E (Thermal)             CV                S
                      KCal/Mol        Cal/Mol-Kelvin    Cal/Mol-Kelvin
 Total                  151.620             49.447            113.553
 Electronic               0.000              0.000              0.000
 Translational            0.889              2.981             41.195
 Rotational               0.889              2.981             30.840
 Vibrational            149.843             43.485             41.519
 Vibration     1          0.594              1.982              5.369
 Vibration     2          0.595              1.978              4.901
 Vibration     3          0.599              1.966              4.042
 Vibration     4          0.616              1.910              2.763
 Vibration     5          0.618              1.904              2.682
 Vibration     6          0.622              1.890              2.536
 Vibration     7          0.632              1.857              2.255
 Vibration     8          0.636              1.845              2.169
 Vibration     9          0.647              1.810              1.953
 Vibration    10          0.657              1.780              1.808
 Vibration    11          0.670              1.740              1.639
 Vibration    12          0.680              1.709              1.529
 Vibration    13          0.770              1.460              0.946
 Vibration    14          0.777              1.440              0.913
 Vibration    15          0.881              1.192              0.596
 Vibration    16          0.908              1.134              0.539
 Vibration    17          0.975              0.999              0.423

 Optimization completed.
    -- Stationary point found.
 Normal termination of Gaussian 09 at Wed Jul 28 11:39:51 2021.
