 Gaussian 09, Revision D.01,
 Gaussian 09:  ES64L-G09RevD.01 24-Apr-2013

 ----------------------------------------------------------------------
 # opt=rcfc freq=noraman b3lyp/6-311+g(d,p) pop=(npa,hirshfeld,chelpg,m
 bs) geom=allcheck guess=read
 ----------------------------------------------------------------------

 Structure from the checkpoint file:  "73_fixed.chk"
 -------------------
 Title Card Required
 -------------------
 Charge =  0 Multiplicity = 1

 SCF Done:  E(RB3LYP) =  -561.954267374     A.U. after    1 cycles
 SCF Done:  E(RB3LYP) =  -561.954267465     A.U. after    7 cycles
 Optimization completed.
    -- Stationary point found.
 Normal termination of Gaussian 09 at Thu Sep 26 15:35:33 2024.

 ----------------------------------------------------------------------
 #N Geom=AllCheck Guess=TCheck SCRF=Check GenChk RB3LYP/6-311+G(d,p) Fr
 eq
 ----------------------------------------------------------------------

 Structure from the checkpoint file:  "73_fixed.chk"
 -------------------
 Title Card Required
 -------------------
 Charge =  0 Multiplicity = 1

                         Standard orientation:
 ---------------------------------------------------------------------
 Center     Atomic      Atomic             Coordinates (Angstroms)
 Number     Number       Type             X           Y           Z
 ---------------------------------------------------------------------
      1          6           0       -0.694936    0.392752   -0.407797
      2          1           0       -1.899154    2.089970    0.371626
      3          1           0       -0.837744    1.284675    1.620208
      4          1           0       -1.726267   -0.948443    0.994791
      5          1           0       -0.815310    0.758257   -1.423561
      6          7           0        0.573164   -0.233208   -0.146324
      7          1           0        0.600216   -1.237963   -0.089473
      8          6           0        1.751209    0.460902   -0.205048
      9          8           0        1.777528    1.663304   -0.418406
     10          6           0       -3.238454   -0.269340   -0.454400
     11          1           0       -3.247396   -1.196258   -1.042863
     12          1           0       -3.324654    0.551176   -1.177463
     13          6           0       -4.455296   -0.249922    0.480488
     14          1           0       -4.365635   -1.069138    1.204230
     15          1           0       -4.441572    0.675988    1.066486
     16          6           0       -5.787669   -0.369927   -0.264405
     17          1           0       -5.841366   -1.302842   -0.834602
     18          1           0       -6.633873   -0.355476    0.427863
     19          1           0       -5.922650    0.456114   -0.969889
     20          6           0        3.061741   -0.329461    0.036588
     21          6           0        2.866065   -1.844817    0.223659
     22          1           0        3.837058   -2.321030    0.384907
     23          1           0        2.248194   -2.077380    1.096720
     24          1           0        2.423648   -2.316789   -0.659888
     25          6           0        3.710363    0.262710    1.306210
     26          1           0        4.684599   -0.202990    1.482950
     27          1           0        3.851146    1.338778    1.196112
     28          1           0        3.086860    0.087628    2.188348
     29          6           0        3.978500   -0.076214   -1.177869
     30          1           0        4.954982   -0.542166   -1.015155
     31          1           0        3.551367   -0.497836   -2.093009
     32          1           0        4.120736    0.994016   -1.331692
     33          6           0       -1.361843    1.199350    0.676850
     34          6           0       -1.918938   -0.149745    0.281536
 ---------------------------------------------------------------------

 SCF Done:  E(RB3LYP) =  -561.954267465     A.U. after    1 cycles

 The electronic state is 1-A.
 Alpha  occ. eigenvalues --  -19.08149 -14.34065 -10.26576 -10.21352 -10.19648
 Alpha  occ. eigenvalues --  -10.18687 -10.17473 -10.17329 -10.17253 -10.17018
 Alpha  occ. eigenvalues --  -10.16213 -10.16069 -10.15943  -1.03636  -0.93432
 Alpha  occ. eigenvalues --   -0.85784  -0.81872  -0.78703  -0.70195  -0.69685
 Alpha  occ. eigenvalues --   -0.68918  -0.64920  -0.60915  -0.59081  -0.58176
 Alpha  occ. eigenvalues --   -0.55777  -0.52314  -0.48710  -0.48130  -0.46604
 Alpha  occ. eigenvalues --   -0.45246  -0.44357  -0.42665  -0.42381  -0.41624
 Alpha  occ. eigenvalues --   -0.41101  -0.39717  -0.38837  -0.38481  -0.37401
 Alpha  occ. eigenvalues --   -0.37094  -0.36079  -0.35546  -0.34660  -0.33857
 Alpha  occ. eigenvalues --   -0.33776  -0.33613  -0.30846  -0.29299  -0.25689
 Alpha  occ. eigenvalues --   -0.24831
 Alpha virt. eigenvalues --   -0.00742   0.00629   0.01067   0.01278   0.01656
 Alpha virt. eigenvalues --    0.02446   0.03071   0.03178   0.03782   0.04804
 Alpha virt. eigenvalues --    0.04839   0.05420   0.05567   0.05842   0.06161

 Mulliken charges:
               1
     1  C   -0.280316
     2  H    0.146508
     3  H    0.156324
     4  H    0.134067
     5  H    0.159046
     6  N   -0.095603
     7  H    0.261206
     8  C   -0.210124
     9  O   -0.310907
    10  C   -0.478786
    11  H    0.143493
    12  H    0.130414
    13  C   -0.085983
    14  H    0.132713
    15  H    0.141307
    16  C   -0.614979
    17  H    0.133205
    18  H    0.138806
    19  H    0.134978
    20  C    0.486150
    21  C   -0.664384
    22  H    0.156830
    23  H    0.143771
    24  H    0.142455
    25  C   -0.476279
    26  H    0.135459
    27  H    0.175113
    28  H    0.134309
    29  C   -0.484710
    30  H    0.133968
    31  H    0.133159
    32  H    0.176498
    33  C   -0.315975
    34  C    0.388271
 Sum of Mulliken charges =   0.00000

 Dipole moment (field-independent basis, Debye):
    X=             -1.1285    Y=             -3.3540    Z=              0.5337  Tot=              3.5788
 Quadrupole moment (field-independent basis, Debye-Ang):
   XX=            -80.8206   YY=            -87.7773   ZZ=            -83.8568
   XY=             -6.5752   XZ=              1.5512   YZ=              1.0794

  Exact polarizability: 177.625   2.606 129.732   0.033   0.201 121.697
 Approx polarizability: 198.991   5.890 201.753  -1.382  -2.255 179.811

 ESP charges:
               1
     1  C    0.296858
     2  H    0.113112
     3  H    0.111433
     4  H    0.103562
     5  H    0.022436
     6  N   -0.663214
     7  H    0.293909
     8  C    0.701051
     9  O   -0.609290
    10  C   -0.017547
    11  H   -0.016091
    12  H    0.029852
    13  C    0.301803
    14  H   -0.069959
    15  H   -0.069669
    16  C   -0.230349
    17  H    0.044656
    18  H    0.048401
    19  H    0.037262
    20  C    0.268403
    21  C   -0.308600
    22  H    0.088942
    23  H    0.060705
    24  H    0.055382
    25  C   -0.225311
    26  H    0.052873
    27  H    0.061426
    28  H    0.039219
    29  C   -0.265928
    30  H    0.068751
    31  H    0.043338
    32  H    0.071005
    33  C   -0.270494
    34  C   -0.167926
 Sum of ESP charges =   0.00000

 Summary of Natural Population Analysis:

                                       Natural Population
                Natural  -----------------------------------------------
    Atom  No    Charge         Core      Valence    Rydberg      Total
 -----------------------------------------------------------------------
      C    1   -0.03492      1.99911     4.01342    0.02238     6.03492
      H    2    0.21007      0.00000     0.78837    0.00156     0.78993
      H    3    0.21673      0.00000     0.78172    0.00156     0.78327
      H    4    0.20830      0.00000     0.78958    0.00213     0.79170
      H    5    0.20438      0.00000     0.79196    0.00366     0.79562
      N    6   -0.64604      1.99930     5.62679    0.01995     7.64604
      H    7    0.39485      0.00000     0.60295    0.00220     0.60515
      C    8    0.70014      1.99924     3.25253    0.04809     5.29986
      O    9   -0.64162      1.99975     6.62931    0.01256     8.64162
      C   10   -0.38076      1.99925     4.36535    0.01617     6.38076
      H   11    0.19551      0.00000     0.80255    0.00194     0.80449
      H   12    0.19478      0.00000     0.80309    0.00213     0.80522
      C   13   -0.38235      1.99931     4.37012    0.01292     6.38235
      H   14    0.18772      0.00000     0.81004    0.00224     0.81228
      H   15    0.19366      0.00000     0.80420    0.00214     0.80634
      C   16   -0.57352      1.99938     4.56506    0.00908     6.57352
      H   17    0.19292      0.00000     0.80540    0.00168     0.80708
      H   18    0.20138      0.00000     0.79746    0.00116     0.79862
      H   19    0.19389      0.00000     0.80447    0.00164     0.80611
      C   20   -0.15688      1.99914     4.14023    0.01751     6.15688
      C   21   -0.59166      1.99930     4.58076    0.01160     6.59166
      H   22    0.21309      0.00000     0.78549    0.00141     0.78691
      H   23    0.20143      0.00000     0.79714    0.00143     0.79857
      H   24    0.20005      0.00000     0.79852    0.00143     0.79995
      C   25   -0.56445      1.99930     4.55335    0.01180     6.56445
      H   26    0.19709      0.00000     0.80151    0.00140     0.80291
      H   27    0.22279      0.00000     0.77582    0.00139     0.77721
      H   28    0.19949      0.00000     0.79929    0.00122     0.80051
      C   29   -0.56561      1.99930     4.55420    0.01211     6.56561
      H   30    0.19635      0.00000     0.80225    0.00140     0.80365
      H   31    0.19932      0.00000     0.79950    0.00118     0.80068
      H   32    0.22443      0.00000     0.77416    0.00140     0.77557
      C   33   -0.38406      1.99923     4.36755    0.01728     6.38406
      C   34   -0.22649      1.99917     4.20991    0.01742     6.22649
 =======================================================================
   * Total *    0.00000     25.99077    75.74403    0.26520   102.00000

                      1                      2                      3
                      A                      A                      A
 Frequencies --     20.7658                45.7127                48.1954
 Red. masses --      2.9606                 4.8084                 3.5457
 Frc consts  --      0.0008                 0.0059                 0.0049
 IR Inten    --      0.1787                 4.1878                 0.6216

                      4                      5                      6
                      A                      A                      A
 Frequencies --     60.6079               100.6069               119.1642
 Red. masses --      2.2462                 2.0090                 3.0695
 Frc consts  --      0.0049                 0.0120                 0.0257
 IR Inten    --      0.3029                 0.0901                 1.0338

                      7                      8                      9
                      A                      A                      A
 Frequencies --    141.4437               209.1935               215.7429
 Red. masses --      3.3903                 1.5718                 2.0217
 Frc consts  --      0.0400                 0.0405                 0.0554
 IR Inten    --      0.1867                 1.2938                 2.0119

                     10                     11                     12
                      A                      A                      A
 Frequencies --    238.4573               250.7169               260.5246
 Red. masses --      1.1843                 1.5429                 1.6010
 Frc consts  --      0.0397                 0.0571                 0.0640
 IR Inten    --      0.2492                 2.0769                 5.3795

                     13                     14                     15
                      A                      A                      A
 Frequencies --    276.9162               304.0008               310.0734
 Red. masses --      1.9151                 1.1175                 2.8909
 Frc consts  --      0.0865                 0.0608                 0.1638
 IR Inten    --      4.9003                 0.1324                 3.3197

                     16                     17                     18
                      A                      A                      A
 Frequencies --    325.6530               359.8184               372.1492
 Red. masses --      2.7813                 2.7960                 2.2776
 Frc consts  --      0.1738                 0.2133                 0.1859
 IR Inten    --      0.1338                 3.0643                 1.3358

                     19                     20                     21
                      A                      A                      A
 Frequencies --    377.6889               438.6840               469.1334
 Red. masses --      2.5934                 2.6300                 1.2459
 Frc consts  --      0.2180                 0.2982                 0.1616
 IR Inten    --     11.2542                 8.7729                33.6262

                     22                     23                     24
                      A                      A                      A
 Frequencies --    486.3723               527.4362               585.8343
 Red. masses --      2.4132                 2.8992                 2.8403
 Frc consts  --      0.3363                 0.4752                 0.5743
 IR Inten    --      3.4627                 3.5887                 1.2942

                     25                     26                     27
                      A                      A                      A
 Frequencies --    742.3935               771.9048               793.5299
 Red. masses --      1.1584                 5.8738                 2.6454
 Frc consts  --      0.3762                 2.0620                 0.9814
 IR Inten    --      3.5185                 2.0139                 0.3937

                     28                     29                     30
                      A                      A                      A
 Frequencies --    805.6523               857.6542               875.1032
 Red. masses --      2.7445                 1.2213                 1.9775
 Frc consts  --      1.0496                 0.5293                 0.8922
 IR Inten    --      1.9106                 0.9781                 7.6628

                     31                     32                     33
                      A                      A                      A
 Frequencies --    888.6492               908.4132               934.7740
 Red. masses --      2.7469                 1.6280                 1.8324
 Frc consts  --      1.2781                 0.7915                 0.9434
 IR Inten    --      3.2302                 0.9376                 1.4142

                     34                     35                     36
                      A                      A                      A
 Frequencies --    935.8552               940.5343               965.3512
 Red. masses --      1.7820                 1.6555                 1.2105
 Frc consts  --      0.9196                 0.8628                 0.6646
 IR Inten    --      0.9368                 0.2470                 0.0861

                     37                     38                     39
                      A                      A                      A
 Frequencies --    999.5698              1031.3949              1040.7403
 Red. masses --      2.8958                 1.5464                 2.2857
 Frc consts  --      1.7047                 0.9692                 1.4587
 IR Inten    --     13.3772                14.6507                 0.3779

                     40                     41                     42
                      A                      A                      A
 Frequencies --   1046.4242              1046.8292              1059.8256
 Red. masses --      1.3694                 1.4134                 1.5769
 Frc consts  --      0.8835                 0.9126                 1.0436
 IR Inten    --      1.4652                 0.2528                 0.2484

                     43                     44                     45
                      A                      A                      A
 Frequencies --   1085.5180              1099.8439              1129.8746
 Red. masses --      2.2195                 1.1715                 2.0912
 Frc consts  --      1.5409                 0.8349                 1.5729
 IR Inten    --      4.8019                 2.1554                 1.4161

                     46                     47                     48
                      A                      A                      A
 Frequencies --   1163.3638              1196.5226              1216.0566
 Red. masses --      2.0456                 1.9597                 2.1140
 Frc consts  --      1.6312                 1.6530                 1.8419
 IR Inten    --     31.9820                 0.9845                38.3441

                     49                     50                     51
                      A                      A                      A
 Frequencies --   1223.1821              1242.2788              1247.6401
 Red. masses --      2.7658                 1.8260                 2.8168
 Frc consts  --      2.4381                 1.6603                 2.5833
 IR Inten    --      1.9175                31.9717                 7.2852

                     52                     53                     54
                      A                      A                      A
 Frequencies --   1266.7465              1283.0446              1301.5335
 Red. masses --      1.3753                 2.2149                 1.2918
 Frc consts  --      1.3003                 2.1482                 1.2893
 IR Inten    --      1.8964                29.8838                 3.3384

                     55                     56                     57
                      A                      A                      A
 Frequencies --   1331.1913              1354.1966              1393.3330
 Red. masses --      1.1147                 1.2452                 1.4868
 Frc consts  --      1.1638                 1.3454                 1.7007
 IR Inten    --      0.8390                 9.1189                 2.6944

                     58                     59                     60
                      A                      A                      A
 Frequencies --   1393.5136              1395.1511              1413.0649
 Red. masses --      1.2152                 1.2233                 1.2384
 Frc consts  --      1.3904                 1.4029                 1.4569
 IR Inten    --      7.9534                13.7437                 1.8362

                     61                     62                     63
                      A                      A                      A
 Frequencies --   1426.6303              1433.9969              1478.1869
 Red. masses --      1.2266                 1.4667                 1.0465
 Frc consts  --      1.4708                 1.7770                 1.3472
 IR Inten    --      8.1482                 6.7713                 0.2227

                     64                     65                     66
                      A                      A                      A
 Frequencies --   1483.9160              1492.7406              1493.2434
 Red. masses --      1.1422                 1.0866                 1.0485
 Frc consts  --      1.4819                 1.4265                 1.3774
 IR Inten    --      4.6603                22.0360                 1.1824

                     67                     68                     69
                      A                      A                      A
 Frequencies --   1494.2500              1496.2402              1499.7884
 Red. masses --      1.1154                 1.3440                 1.0649
 Frc consts  --      1.4674                 1.7728                 1.4112
 IR Inten    --      0.7946                 8.6631                10.7762

                     70                     71                     72
                      A                      A                      A
 Frequencies --   1500.2770              1509.4530              1511.0406
 Red. masses --      1.0654                 1.0858                 1.0475
 Frc consts  --      1.4128                 1.4576                 1.4091
 IR Inten    --     24.0037                 7.6805                 9.2103

                     73                     74                     75
                      A                      A                      A
 Frequencies --   1518.0592              1524.5873              1727.5001
 Red. masses --      1.7701                 1.0640                 9.8730
 Frc consts  --      2.4034                 1.4571                17.3595
 IR Inten    --    257.6083                26.8498               235.6621

                     76                     77                     78
                      A                      A                      A
 Frequencies --   2996.9791              3010.4972              3013.2934
 Red. masses --      1.0595                 1.0650                 1.0358
 Frc consts  --      5.6070                 5.6868                 5.5415
 IR Inten    --     16.2789                31.1261                24.2405

                     79                     80                     81
                      A                      A                      A
 Frequencies --   3018.1853              3021.2189              3023.9169
 Red. masses --      1.0374                 1.0360                 1.0928
 Frc consts  --      5.5679                 5.5718                 5.8877
 IR Inten    --     44.4966                36.8670                 9.9750

                     82                     83                     84
                      A                      A                      A
 Frequencies --   3026.3562              3045.5299              3075.0350
 Red. masses --      1.0374                 1.1035                 1.1022
 Frc consts  --      5.5982                 6.0303                 6.1405
 IR Inten    --     20.0481                22.0715                11.3328

                     85                     86                     87
                      A                      A                      A
 Frequencies --   3078.6952              3078.9492              3080.4643
 Red. masses --      1.1013                 1.1026                 1.1022
 Frc consts  --      6.1501                 6.1586                 6.1625
 IR Inten    --      0.6203                59.7473                33.8958

                     88                     89                     90
                      A                      A                      A
 Frequencies --   3084.9267              3085.3000              3110.0010
 Red. masses --      1.1007                 1.1002                 1.0882
 Frc consts  --      6.1720                 6.1705                 6.2015
 IR Inten    --     52.1378                78.3395                16.4592

                     91                     92                     93
                      A                      A                      A
 Frequencies --   3115.0584              3119.8719              3124.1129
 Red. masses --      1.1004                 1.0994                 1.0771
 Frc consts  --      6.2910                 6.3050                 6.1938
 IR Inten    --      3.4458                20.2696                17.8073

                     94                     95                     96
                      A                      A                      A
 Frequencies --   3128.3472              3215.4671              3642.9829
 Red. masses --      1.0656                 1.1173                 1.0769
 Frc consts  --      6.1443                 6.8062                 8.4206
 IR Inten    --     11.7285                 9.0975                22.2406

 - Thermochemistry -
 -------------------
 Temperature   298.150 Kelvin.  Pressure   1.00000 Atm.
 Atom     1 has atomic number  6 and mass  12.00000

 Molecular mass:   183.16231 amu.
 Principal axes and moments of inertia in atomic units:
                           1         2         3
     Eigenvalues --   829.392646759.329926973.74105
           X            0.99998  -0.00525   0.00280
           Y            0.00518   0.99967   0.02505
           Z           -0.00293  -0.02504   0.99968
 This molecule is an asymmetric top.
 Rotational symmetry number  1.
 Warning -- assumption of classical behavior for rotation
           may cause significant error
 Rotational temperatures (Kelvin)      0.10443     0.01281     0.01242
 Rotational constants (GHZ):           2.17598     0.26700     0.25879
 Zero-point vibrational energy     799169.1 (Joules/Mol)
                                  191.00600 (Kcal/Mol)
 Warning -- explicit consideration of  24 degrees of freedom as
           vibrations may cause significant error
 Vibrational temperatures:     29.88    65.77    69.34    87.20   144.75
          (Kelvin)            171.45   203.51   300.98   310.41   343.09
                              360.73   374.84   398.42   437.39   446.13
                              468.54   517.70   535.44   543.41   631.17
                              674.98   699.78   758.86   842.88  1068.14
                             1110.60  1141.71  1159.15  1233.97  1259.08
                             1278.57  1307.00  1344.93  1346.49  1353.22
                             1388.92  1438.16  1483.95  1497.39  1505.57
                             1506.15  1524.85  1561.82  1582.43  1625.64
                             1673.82  1721.53  1749.63  1759.88  1787.36
                             1795.07  1822.56  1846.01  1872.61  1915.29
                             1948.38  2004.69  2004.95  2007.31  2033.08
                             2052.60  2063.20  2126.78  2135.02  2147.72
                             2148.44  2149.89  2152.75  2157.86  2158.56
                             2171.76  2174.05  2184.15  2193.54  2485.48
                             4311.98  4331.43  4335.45  4342.49  4346.85
                             4350.74  4354.25  4381.83  4424.28  4429.55
                             4429.92  4432.10  4438.52  4439.05  4474.59
                             4481.87  4488.79  4494.90  4500.99  4626.33
                             5241.43

 Zero-point correction=                           0.304387 (Hartree/Particle)
 Thermal correction to Energy=                    0.320331
 Thermal correction to Enthalpy=                  0.321275
 Thermal correction to Gibbs Free Energy=         0.260244
 Sum of electronic and zero-point Energies=           -561.649880
 Sum of electronic and thermal Energies=              -561.633937
 Sum of electronic and thermal Enthalpies=            -561.632993
 Sum of electronic and thermal Free Energies=         -561.694024

                     E (Thermal)             CV                S
                      KCal/Mol        Cal/Mol-Kelvin    Cal/Mol-Kelvin
 Total                  201.010             59.037            128.450
 Electronic               0.000              0.000              0.000
 Translational            0.889              2.981             41.522
 Rotational               0.889              2.981             32.036
 Vibrational            199.233             53.076             54.892
 Vibration     1          0.593              1.986              6.560
 Vibration     2          0.595              1.979              4.995
 Vibration     3          0.595              1.978              4.890
 Vibration     4          0.597              1.973              4.437
 Vibration     5          0.604              1.949              3.443
 Vibration     6          0.609              1.933              3.114
 Vibration     7          0.615              1.912              2.784
 Vibration     8          0.642              1.827              2.051
 Vibration     9          0.645              1.817              1.995
 Vibration    10          0.656              1.782              1.814
 Vibration    11          0.663              1.762              1.726
 Vibration    12          0.669              1.745              1.658
 Vibration    13          0.678              1.716              1.553
 Vibration    14          0.695              1.666              1.395
 Vibration    15          0.699              1.655              1.362
 Vibration    16          0.710              1.624              1.282
 Vibration    17          0.734              1.555              1.123
 Vibration    18          0.744              1.529              1.071
 Vibration    19          0.748              1.518              1.048
 Vibration    20          0.799              1.386              0.831
 Vibration    21          0.826              1.319              0.740
 Vibration    22          0.842              1.280              0.693
 Vibration    23          0.882              1.189              0.593
 Vibration    24          0.943              1.062              0.475

 Optimization completed.
    -- Stationary point found.
 Normal termination of Gaussian 09 at Thu Sep 26 15:44:48 2024.
