 Gaussian 09, Revision D.01,
 Gaussian 09:  ES64L-G09RevD.01 24-Apr-2013

 ----------------------------------------------------------------------
 # opt freq b3lyp/6-311+g(d,p) geom=connectivity pop=(hirshfeld,chelpg,
 mbs,npa)
 ----------------------------------------------------------------------

 -------------------
 Title Card Required
 -------------------
 Symbolic Z-matrix:
 Charge =  0 Multiplicity = 1

 SCF Done:  E(RB3LYP) =  -719.567779277     A.U. after   14 cycles
 SCF Done:  E(RB3LYP) =  -719.657847182     A.U. after   14 cycles
 SCF Done:  E(RB3LYP) =  -719.668121927     A.U. after   13 cycles
 SCF Done:  E(RB3LYP) =  -719.670949979     A.U. after   15 cycles
 SCF Done:  E(RB3LYP) =  -719.673374301     A.U. after   15 cycles
 SCF Done:  E(RB3LYP) =  -719.675348113     A.U. after   13 cycles
 SCF Done:  E(RB3LYP) =  -719.678193381     A.U. after   14 cycles
 SCF Done:  E(RB3LYP) =  -719.679623249     A.U. after   12 cycles
 SCF Done:  E(RB3LYP) =  -719.681063486     A.U. after   12 cycles
 SCF Done:  E(RB3LYP) =  -719.681307999     A.U. after   11 cycles
 SCF Done:  E(RB3LYP) =  -719.681375677     A.U. after   12 cycles
 SCF Done:  E(RB3LYP) =  -719.681683310     A.U. after   12 cycles
 SCF Done:  E(RB3LYP) =  -719.681831801     A.U. after   11 cycles
 SCF Done:  E(RB3LYP) =  -719.682016808     A.U. after   12 cycles
 SCF Done:  E(RB3LYP) =  -719.682077658     A.U. after   10 cycles
 SCF Done:  E(RB3LYP) =  -719.682110442     A.U. after   11 cycles
 SCF Done:  E(RB3LYP) =  -719.682113576     A.U. after   10 cycles
 SCF Done:  E(RB3LYP) =  -719.682113916     A.U. after    9 cycles
 SCF Done:  E(RB3LYP) =  -719.682113858     A.U. after    8 cycles
 Optimization completed.
    -- Stationary point found.
 Normal termination of Gaussian 09 at Mon Jan  9 17:38:55 2023.

 ----------------------------------------------------------------------
 #N Geom=AllCheck Guess=TCheck SCRF=Check GenChk RB3LYP/6-311+G(d,p) Fr
 eq
 ----------------------------------------------------------------------

 Structure from the checkpoint file:  "hydrosilane1_Hartwig.chk"
 -------------------
 Title Card Required
 -------------------
 Charge =  0 Multiplicity = 1

                         Standard orientation:
 ---------------------------------------------------------------------
 Center     Atomic      Atomic             Coordinates (Angstroms)
 Number     Number       Type             X           Y           Z
 ---------------------------------------------------------------------
      1          6           0        1.081546   -2.844965   -0.184172
      2          6           0        1.492044   -1.517107   -0.276156
      3          6           0        0.615644   -0.446102   -0.027543
      4          6           0       -0.721823   -0.746826    0.319657
      5          6           0       -1.121323   -2.085592    0.412780
      6          6           0       -0.235119   -3.129884    0.165638
      7          1           0        1.784100   -3.647349   -0.380979
      8          1           0        2.522592   -1.315211   -0.549474
      9          1           0       -2.147179   -2.311613    0.688987
     10          1           0       -0.570823   -4.157930    0.248502
     11          6           0       -1.762873    0.329083    0.558554
     12          1           0       -1.293314    1.248271    0.920700
     13          1           0       -2.440131    0.001837    1.355826
     14          6           0       -2.597101    0.658117   -0.695141
     15          1           0       -1.924290    0.976527   -1.498049
     16          1           0       -3.084254   -0.257281   -1.048619
     17          6           0       -3.648461    1.740875   -0.438956
     18          1           0       -3.181834    2.678379   -0.120612
     19          1           0       -4.230084    1.949780   -1.341031
     20          1           0       -4.349208    1.436623    0.345240
     21         14           0        1.297434    1.322826   -0.121990
     22          1           0        0.311429    2.199443   -0.816953
     23          6           0        2.903674    1.358959   -1.113242
     24          1           0        3.246675    2.392126   -1.224094
     25          1           0        3.704975    0.800033   -0.621245
     26          1           0        2.767873    0.944749   -2.115985
     27          6           0        1.608019    2.022931    1.606506
     28          1           0        1.987181    3.047888    1.547436
     29          1           0        0.697571    2.037346    2.211247
     30          1           0        2.349284    1.419872    2.139412
 ---------------------------------------------------------------------

 SCF Done:  E(RB3LYP) =  -719.682113858     A.U. after    1 cycles

 The electronic state is 1-A.
 Alpha  occ. eigenvalues --  -66.08518 -10.18464 -10.17600 -10.17592 -10.17260
 Alpha  occ. eigenvalues --  -10.17198 -10.17160 -10.16786 -10.16486 -10.15924
 Alpha  occ. eigenvalues --  -10.15042 -10.14898  -5.25844  -3.61676  -3.61643
 Alpha  occ. eigenvalues --   -3.61615  -0.85856  -0.79862  -0.74826  -0.74723
 Alpha  occ. eigenvalues --   -0.70651  -0.68354  -0.67890  -0.60580  -0.60303
 Alpha  occ. eigenvalues --   -0.57690  -0.51610  -0.48376  -0.47618  -0.44750
 Alpha  occ. eigenvalues --   -0.44312  -0.42768  -0.42117  -0.41487  -0.41271
 Alpha  occ. eigenvalues --   -0.39699  -0.39660  -0.38916  -0.37832  -0.37174
 Alpha  occ. eigenvalues --   -0.36123  -0.34339  -0.33617  -0.33144  -0.31733
 Alpha  occ. eigenvalues --   -0.31242  -0.29921  -0.25466  -0.24610
 Alpha virt. eigenvalues --   -0.02487  -0.01535  -0.00343   0.00709   0.00947
 Alpha virt. eigenvalues --    0.01215   0.02766   0.03214   0.03511   0.03880
 Alpha virt. eigenvalues --    0.04855   0.05327   0.05690   0.06548   0.06733

 Mulliken charges:
               1
     1  C   -0.266364
     2  C    0.090978
     3  C   -0.327313
     4  C    0.702565
     5  C   -0.199745
     6  C   -0.194369
     7  H    0.120226
     8  H    0.122329
     9  H    0.112273
    10  H    0.124325
    11  C   -0.727087
    12  H    0.123547
    13  H    0.141050
    14  C   -0.075945
    15  H    0.139394
    16  H    0.132155
    17  C   -0.632084
    18  H    0.134538
    19  H    0.140119
    20  H    0.132475
    21  Si   0.971092
    22  H   -0.143619
    23  C   -0.771870
    24  H    0.164551
    25  H    0.160493
    26  H    0.173976
    27  C   -0.846987
    28  H    0.164298
    29  H    0.164012
    30  H    0.170986
 Sum of Mulliken charges =   0.00000

 Dipole moment (field-independent basis, Debye):
    X=              0.0177    Y=             -0.0501    Z=              0.1630  Tot=              0.1714
 Quadrupole moment (field-independent basis, Debye-Ang):
   XX=            -79.7129   YY=            -81.4015   ZZ=            -87.0724
   XY=              0.9489   XZ=             -1.4035   YZ=              0.2894

  Exact polarizability: 171.368  -0.895 177.665  -7.976   1.642 118.527
 Approx polarizability: 245.257  -0.452 255.966 -17.393   2.148 178.735

 ESP charges:
               1
     1  C   -0.129157
     2  C   -0.033217
     3  C   -0.235146
     4  C    0.162793
     5  C   -0.182180
     6  C   -0.057299
     7  H    0.088684
     8  H    0.065237
     9  H    0.109993
    10  H    0.080613
    11  C   -0.211757
    12  H    0.056381
    13  H    0.035519
    14  C    0.381882
    15  H   -0.107170
    16  H   -0.093900
    17  C   -0.133964
    18  H    0.014405
    19  H    0.018632
    20  H    0.015593
    21  Si   0.643620
    22  H   -0.174612
    23  C   -0.373780
    24  H    0.075019
    25  H    0.090966
    26  H    0.060281
    27  C   -0.377521
    28  H    0.085568
    29  H    0.062434
    30  H    0.062083
 Sum of ESP charges =   0.00000

 Summary of Natural Population Analysis:

                                       Natural Population
                Natural  -----------------------------------------------
    Atom  No    Charge         Core      Valence    Rydberg      Total
 -----------------------------------------------------------------------
      C    1   -0.21319      1.99914     4.19513    0.01891     6.21319
      C    2   -0.18572      1.99912     4.16777    0.01883     6.18572
      C    3   -0.45724      1.99897     4.42985    0.02843     6.45724
      C    4   -0.00428      1.99901     3.98479    0.02047     6.00428
      C    5   -0.20697      1.99903     4.18991    0.01802     6.20697
      C    6   -0.19040      1.99915     4.17289    0.01836     6.19040
      H    7    0.20484      0.00000     0.79363    0.00153     0.79516
      H    8    0.19992      0.00000     0.79836    0.00172     0.80008
      H    9    0.20152      0.00000     0.79661    0.00187     0.79848
      H   10    0.20456      0.00000     0.79396    0.00148     0.79544
      C   11   -0.40233      1.99922     4.38712    0.01599     6.40233
      H   12    0.20127      0.00000     0.79662    0.00211     0.79873
      H   13    0.20300      0.00000     0.79498    0.00202     0.79700
      C   14   -0.37648      1.99930     4.36476    0.01242     6.37648
      H   15    0.19792      0.00000     0.80006    0.00202     0.80208
      H   16    0.19205      0.00000     0.80595    0.00200     0.80795
      C   17   -0.57468      1.99937     4.56625    0.00906     6.57468
      H   18    0.19466      0.00000     0.80373    0.00161     0.80534
      H   19    0.20194      0.00000     0.79688    0.00119     0.79806
      H   20    0.19253      0.00000     0.80581    0.00166     0.80747
     Si   21    1.35975      9.99842     2.61052    0.03130    12.64025
      H   22   -0.18540      0.00000     1.18136    0.00405     1.18540
      C   23   -1.06746      1.99937     5.05853    0.00956     7.06746
      H   24    0.23109      0.00000     0.76803    0.00088     0.76891
      H   25    0.22534      0.00000     0.77347    0.00118     0.77466
      H   26    0.23212      0.00000     0.76688    0.00100     0.76788
      C   27   -1.06158      1.99935     5.05196    0.01026     7.06158
      H   28    0.22642      0.00000     0.77263    0.00095     0.77358
      H   29    0.22825      0.00000     0.77059    0.00116     0.77175
      H   30    0.22856      0.00000     0.77031    0.00113     0.77144
 =======================================================================
   * Total *    0.00000     31.98946    65.76936    0.24117    98.00000

                      1                      2                      3
                      A                      A                      A
 Frequencies --     45.4484                54.9322                79.7695
 Red. masses --      2.7870                 3.3740                 3.3249
 Frc consts  --      0.0034                 0.0060                 0.0125
 IR Inten    --      0.0967                 0.0316                 0.0132

                      4                      5                      6
                      A                      A                      A
 Frequencies --    102.7235               106.6577               135.7426
 Red. masses --      1.6136                 3.3581                 1.3237
 Frc consts  --      0.0100                 0.0225                 0.0144
 IR Inten    --      0.0650                 0.2463                 0.0669

                      7                      8                      9
                      A                      A                      A
 Frequencies --    160.1597               180.3342               194.8026
 Red. masses --      1.7890                 1.1107                 2.2228
 Frc consts  --      0.0270                 0.0213                 0.0497
 IR Inten    --      0.0160                 0.2176                 0.4745

                     10                     11                     12
                      A                      A                      A
 Frequencies --    223.0128               243.6011               262.5561
 Red. masses --      2.9130                 1.3272                 2.3241
 Frc consts  --      0.0854                 0.0464                 0.0944
 IR Inten    --      1.2569                 0.4609                 2.5341

                     13                     14                     15
                      A                      A                      A
 Frequencies --    300.1557               304.3840               376.5609
 Red. masses --      3.0042                 3.9188                 3.6325
 Frc consts  --      0.1595                 0.2139                 0.3035
 IR Inten    --      2.4961                 2.7445                 6.1394

                     16                     17                     18
                      A                      A                      A
 Frequencies --    413.0760               457.0591               527.3249
 Red. masses --      3.0387                 3.2116                 3.5278
 Frc consts  --      0.3055                 0.3953                 0.5780
 IR Inten    --      4.1595                 8.1029                 2.2716

                     19                     20                     21
                      A                      A                      A
 Frequencies --    610.6957               639.0447               641.5724
 Red. masses --      4.5274                 1.5349                 1.8323
 Frc consts  --      0.9948                 0.3693                 0.4444
 IR Inten    --      1.1556                 9.1966                 9.9619

                     22                     23                     24
                      A                      A                      A
 Frequencies --    690.3355               699.5141               727.9114
 Red. masses --      4.0896                 2.5302                 1.4675
 Frc consts  --      1.1483                 0.7295                 0.4581
 IR Inten    --      5.8228                 7.8444                49.9016

                     25                     26                     27
                      A                      A                      A
 Frequencies --    745.3141               759.8219               767.9343
 Red. masses --      1.1072                 1.9313                 1.4068
 Frc consts  --      0.3624                 0.6569                 0.4888
 IR Inten    --      2.6898                20.8851                37.5525

                     28                     29                     30
                      A                      A                      A
 Frequencies --    789.0283               832.0197               867.2344
 Red. masses --      1.8456                 3.3363                 1.4493
 Frc consts  --      0.6770                 1.3607                 0.6422
 IR Inten    --     19.7413                 0.4785                59.5789

                     31                     32                     33
                      A                      A                      A
 Frequencies --    880.8997               887.3564               903.6650
 Red. masses --      1.2771                 1.5098                 1.6791
 Frc consts  --      0.5839                 0.7004                 0.8079
 IR Inten    --      5.2753                 1.8332                59.9291

                     34                     35                     36
                      A                      A                      A
 Frequencies --    905.7838               913.9406               966.9051
 Red. masses --      1.4169                 1.2219                 1.3797
 Frc consts  --      0.6849                 0.6013                 0.7600
 IR Inten    --    135.9203               103.7336                 0.2327

                     37                     38                     39
                      A                      A                      A
 Frequencies --   1001.7040              1038.6012              1053.7610
 Red. masses --      1.3077                 2.9498                 2.6881
 Frc consts  --      0.7731                 1.8747                 1.7587
 IR Inten    --      0.0197                 0.5578                 0.8190

                     40                     41                     42
                      A                      A                      A
 Frequencies --   1076.7061              1105.0190              1107.5196
 Red. masses --      1.9784                 2.6324                 2.1312
 Frc consts  --      1.3513                 1.8938                 1.5402
 IR Inten    --      2.4218                19.7229                 9.2841

                     43                     44                     45
                      A                      A                      A
 Frequencies --   1152.4778              1186.9075              1217.4519
 Red. masses --      1.6307                 1.1190                 2.2280
 Frc consts  --      1.2761                 0.9288                 1.9457
 IR Inten    --     10.1796                 0.7832                 1.8234

                     46                     47                     48
                      A                      A                      A
 Frequencies --   1245.6105              1288.1535              1293.8457
 Red. masses --      1.4774                 1.9168                 1.2767
 Frc consts  --      1.3505                 1.8739                 1.2592
 IR Inten    --      0.0867                 2.9666                35.4051

                     49                     50                     51
                      A                      A                      A
 Frequencies --   1302.0111              1311.9218              1316.2789
 Red. masses --      1.2899                 1.4155                 1.4629
 Frc consts  --      1.2884                 1.4354                 1.4933
 IR Inten    --     24.1553                 0.0239                 1.0381

                     52                     53                     54
                      A                      A                      A
 Frequencies --   1340.8859              1377.0233              1413.5180
 Red. masses --      1.4723                 1.4512                 1.2354
 Frc consts  --      1.5597                 1.6213                 1.4544
 IR Inten    --      0.6880                 1.2774                 2.8448

                     55                     56                     57
                      A                      A                      A
 Frequencies --   1458.7083              1460.4511              1463.5620
 Red. masses --      1.0540                 1.0706                 1.8454
 Frc consts  --      1.3214                 1.3455                 2.3289
 IR Inten    --      1.8163                 3.5438                13.1953

                     58                     59                     60
                      A                      A                      A
 Frequencies --   1469.6365              1472.2397              1490.7759
 Red. masses --      1.0935                 1.0491                 1.0684
 Frc consts  --      1.3915                 1.3397                 1.3989
 IR Inten    --      3.0538                 5.7181                 0.4622

                     61                     62                     63
                      A                      A                      A
 Frequencies --   1498.0359              1500.1073              1502.8439
 Red. masses --      1.1301                 1.0695                 1.9446
 Frc consts  --      1.4943                 1.4180                 2.5876
 IR Inten    --      2.4397                 5.2602                11.4706

                     64                     65                     66
                      A                      A                      A
 Frequencies --   1512.2113              1601.2902              1628.5337
 Red. masses --      1.0979                 5.2131                 5.2987
 Frc consts  --      1.4793                 7.8757                 8.2796
 IR Inten    --      9.4353                 4.0290                 7.0557

                     67                     68                     69
                      A                      A                      A
 Frequencies --   2189.7522              3016.9353              3018.5604
 Red. masses --      1.0402                 1.0500                 1.0469
 Frc consts  --      2.9386                 5.6310                 5.6202
 IR Inten    --    143.0628                 8.3147                22.8455

                     70                     71                     72
                      A                      A                      A
 Frequencies --   3022.3833              3024.6745              3025.5721
 Red. masses --      1.0352                 1.0349                 1.0656
 Frc consts  --      5.5714                 5.5781                 5.7473
 IR Inten    --      7.2289                 8.0634                47.8543

                     73                     74                     75
                      A                      A                      A
 Frequencies --   3046.8358              3065.1862              3083.0881
 Red. masses --      1.0943                 1.1009                 1.1031
 Frc consts  --      5.9855                 6.0942                 6.1778
 IR Inten    --      5.9971                 9.0833                67.5259

                     76                     77                     78
                      A                      A                      A
 Frequencies --   3085.0203              3090.4728              3092.6333
 Red. masses --      1.1009                 1.1004                 1.0998
 Frc consts  --      6.1732                 6.1922                 6.1974
 IR Inten    --     42.9877                 0.4588                27.3892

                     79                     80                     81
                      A                      A                      A
 Frequencies --   3099.1752              3099.4957              3147.1995
 Red. masses --      1.1006                 1.0997                 1.0868
 Frc consts  --      6.2282                 6.2248                 6.3423
 IR Inten    --     10.9069                11.4030                12.2576

                     82                     83                     84
                      A                      A                      A
 Frequencies --   3156.4071              3169.1407              3183.5114
 Red. masses --      1.0867                 1.0915                 1.0974
 Frc consts  --      6.3792                 6.4590                 6.5529
 IR Inten    --      0.5840                24.4016                26.8404

 - Thermochemistry -
 -------------------
 Temperature   298.150 Kelvin.  Pressure   1.00000 Atm.
 Atom     1 has atomic number  6 and mass  12.00000

 Molecular mass:   178.11778 amu.
 Principal axes and moments of inertia in atomic units:
                           1         2         3
     Eigenvalues --  2280.519482645.833104275.78651
           X            0.99941  -0.03423  -0.00048
           Y            0.03423   0.99940   0.00440
           Z            0.00033  -0.00442   0.99999
 This molecule is an asymmetric top.
 Rotational symmetry number  1.
 Warning -- assumption of classical behavior for rotation
           may cause significant error
 Rotational temperatures (Kelvin)      0.03798     0.03274     0.02026
 Rotational constants (GHZ):           0.79137     0.68211     0.42208
 Zero-point vibrational energy     675298.6 (Joules/Mol)
                                  161.40024 (Kcal/Mol)
 Warning -- explicit consideration of  19 degrees of freedom as
           vibrations may cause significant error
 Vibrational temperatures:     65.39    79.04   114.77   147.80   153.46
          (Kelvin)            195.30   230.43   259.46   280.28   320.87
                              350.49   377.76   431.86   437.94   541.79
                              594.32   657.61   758.70   878.65   919.44
                              923.08   993.24  1006.44  1047.30  1072.34
                             1093.21  1104.88  1135.23  1197.09  1247.76
                             1267.42  1276.71  1300.17  1303.22  1314.96
                             1391.16  1441.23  1494.31  1516.13  1549.14
                             1589.87  1593.47  1658.16  1707.69  1751.64
                             1792.15  1853.36  1861.55  1873.30  1887.56
                             1893.83  1929.23  1981.23  2033.73  2098.75
                             2101.26  2105.74  2114.48  2118.22  2144.89
                             2155.34  2158.32  2162.25  2175.73  2303.90
                             2343.09  3150.56  4340.69  4343.03  4348.53
                             4351.83  4353.12  4383.71  4410.11  4435.87
                             4438.65  4446.50  4449.60  4459.02  4459.48
                             4528.11  4541.36  4559.68  4580.36

 Zero-point correction=                           0.257208 (Hartree/Particle)
 Thermal correction to Energy=                    0.271753
 Thermal correction to Enthalpy=                  0.272697
 Thermal correction to Gibbs Free Energy=         0.215733
 Sum of electronic and zero-point Energies=           -719.424906
 Sum of electronic and thermal Energies=              -719.410361
 Sum of electronic and thermal Enthalpies=            -719.409417
 Sum of electronic and thermal Free Energies=         -719.466381

                     E (Thermal)             CV                S
                      KCal/Mol        Cal/Mol-Kelvin    Cal/Mol-Kelvin
 Total                  170.528             54.410            119.892
 Electronic               0.000              0.000              0.000
 Translational            0.889              2.981             41.439
 Rotational               0.889              2.981             31.623
 Vibrational            168.750             48.449             46.830
 Vibration     1          0.595              1.979              5.006
 Vibration     2          0.596              1.976              4.631
 Vibration     3          0.600              1.963              3.897
 Vibration     4          0.605              1.947              3.402
 Vibration     5          0.606              1.944              3.329
 Vibration     6          0.614              1.918              2.863
 Vibration     7          0.622              1.891              2.548
 Vibration     8          0.629              1.866              2.325
 Vibration     9          0.635              1.847              2.182
 Vibration    10          0.649              1.806              1.935
 Vibration    11          0.659              1.773              1.776
 Vibration    12          0.670              1.741              1.645
 Vibration    13          0.693              1.673              1.416
 Vibration    14          0.695              1.665              1.393
 Vibration    15          0.747              1.520              1.053
 Vibration    16          0.777              1.442              0.916
 Vibration    17          0.815              1.345              0.775
 Vibration    18          0.882              1.190              0.593
 Vibration    19          0.970              1.009              0.432

 Optimization completed.
    -- Stationary point found.
 Normal termination of Gaussian 09 at Mon Jan  9 17:47:09 2023.
