 Gaussian 09, Revision D.01,
 Gaussian 09:  ES64L-G09RevD.01 24-Apr-2013

 ----------------------------------------------------------------------
 # opt freq=noraman b3lyp/6-311+g(d,p) pop=(npa,hirshfeld,chelpg,mbs) g
 eom=connectivity
 ----------------------------------------------------------------------

 -------------------
 Title Card Required
 -------------------
 Symbolic Z-matrix:
 Charge =  0 Multiplicity = 1

 SCF Done:  E(RB3LYP) =  -755.384488556     A.U. after   15 cycles
 Optimization completed.
    -- Stationary point found.
 Normal termination of Gaussian 09 at Thu Aug 29 12:53:01 2024.

 ----------------------------------------------------------------------
 #N Geom=AllCheck Guess=TCheck SCRF=Check GenChk RB3LYP/6-311+G(d,p) Fr
 eq
 ----------------------------------------------------------------------

 Structure from the checkpoint file:  "Table2_1_fixed.chk"
 -------------------
 Title Card Required
 -------------------
 Charge =  0 Multiplicity = 1

                         Standard orientation:
 ---------------------------------------------------------------------
 Center     Atomic      Atomic             Coordinates (Angstroms)
 Number     Number       Type             X           Y           Z
 ---------------------------------------------------------------------
      1          6           0       -0.608676    0.437098   -0.107063
      2          6           0        0.708319   -0.140268   -0.108500
      3          6           0        1.854873    0.702805    0.068433
      4          6           0        1.669480    2.099492    0.238273
      5          6           0        0.409715    2.641173    0.231368
      6          1           0        0.090864   -2.194100   -0.437546
      7          1           0       -1.698426    2.274874    0.056746
      8          6           0        0.935452   -1.533075   -0.283930
      9          6           0        3.152799    0.127474    0.069353
     10          1           0        2.542071    2.730729    0.372267
     11          1           0        0.271759    3.709400    0.357930
     12          6           0        3.328584   -1.224431   -0.098457
     13          6           0        2.205189   -2.061652   -0.279545
     14          1           0        4.009623    0.779631    0.205100
     15          1           0        4.325211   -1.651211   -0.095738
     16          1           0        2.346809   -3.127634   -0.418821
     17         14           0       -2.190135   -0.597690   -0.280275
     18          1           0       -2.032649   -1.540785   -1.424860
     19          6           0       -3.670544    0.515446   -0.638778
     20          1           0       -3.518556    1.114185   -1.540836
     21          1           0       -4.561534   -0.099863   -0.796410
     22          1           0       -3.886131    1.196102    0.189876
     23          6           0       -2.511988   -1.603680    1.286276
     24          1           0       -3.410802   -2.218054    1.175145
     25          1           0       -1.677826   -2.269205    1.522245
     26          1           0       -2.660478   -0.942626    2.145382
     27          6           0       -0.719546    1.807319    0.058132
 ---------------------------------------------------------------------

 SCF Done:  E(RB3LYP) =  -755.384488556     A.U. after    2 cycles

 The electronic state is 1-A.
 Alpha  occ. eigenvalues --  -66.08730 -10.19097 -10.18845 -10.18109 -10.18090
 Alpha  occ. eigenvalues --  -10.18009 -10.17971 -10.17911 -10.17871 -10.17848
 Alpha  occ. eigenvalues --  -10.17083 -10.15236 -10.14965  -5.26058  -3.61887
 Alpha  occ. eigenvalues --   -3.61863  -3.61826  -0.87912  -0.82727  -0.77873
 Alpha  occ. eigenvalues --   -0.74695  -0.72694  -0.70685  -0.68469  -0.63039
 Alpha  occ. eigenvalues --   -0.61783  -0.59986  -0.52186  -0.51515  -0.50238
 Alpha  occ. eigenvalues --   -0.48427  -0.45064  -0.43845  -0.42322  -0.42004
 Alpha  occ. eigenvalues --   -0.41552  -0.40862  -0.40145  -0.39733  -0.39275
 Alpha  occ. eigenvalues --   -0.38649  -0.36187  -0.34540  -0.33717  -0.32173
 Alpha  occ. eigenvalues --   -0.31466  -0.30213  -0.28809  -0.25269  -0.22572
 Alpha virt. eigenvalues --   -0.05470  -0.02398  -0.00656   0.00048   0.00575
 Alpha virt. eigenvalues --    0.01147   0.02013   0.02621   0.02887   0.03721
 Alpha virt. eigenvalues --    0.04936   0.05174   0.05286   0.05782   0.06849

 Mulliken charges:
               1
     1  C   -0.016508
     2  C    0.584969
     3  C    0.220048
     4  C   -0.033635
     5  C   -0.668630
     6  H    0.121035
     7  H    0.125884
     8  C   -0.188143
     9  C   -0.070957
    10  H    0.119048
    11  H    0.123522
    12  C   -0.265176
    13  C   -0.433091
    14  H    0.117001
    15  H    0.125317
    16  H    0.123673
    17  Si   0.923878
    18  H   -0.150648
    19  C   -0.790681
    20  H    0.171385
    21  H    0.165913
    22  H    0.162797
    23  C   -0.839067
    24  H    0.165198
    25  H    0.168885
    26  H    0.168646
    27  C   -0.130664
 Sum of Mulliken charges =   0.00000

 Dipole moment (field-independent basis, Debye):
    X=             -0.0660    Y=              0.3231    Z=              0.3995  Tot=              0.5180
 Quadrupole moment (field-independent basis, Debye-Ang):
   XX=            -78.7679   YY=            -80.2890   ZZ=            -92.0773
   XY=             -0.5588   XZ=             -0.1303   YZ=              1.0275

  Exact polarizability: 209.871 -12.712 189.438   1.854   5.787 105.465
 Approx polarizability: 311.308 -28.691 324.119   3.957  17.986 163.051

 ESP charges:
               1
     1  C   -0.322772
     2  C    0.189688
     3  C    0.185130
     4  C   -0.219217
     5  C   -0.081678
     6  H    0.147242
     7  H    0.071999
     8  C   -0.238819
     9  C   -0.244852
    10  H    0.119068
    11  H    0.084900
    12  C   -0.044282
    13  C   -0.079508
    14  H    0.121198
    15  H    0.081910
    16  H    0.086401
    17  Si   0.711114
    18  H   -0.226196
    19  C   -0.355241
    20  H    0.056487
    21  H    0.070837
    22  H    0.075046
    23  C   -0.307923
    24  H    0.064407
    25  H    0.039780
    26  H    0.038591
    27  C   -0.023310
 Sum of ESP charges =   0.00000

 Summary of Natural Population Analysis:

                                       Natural Population
                Natural  -----------------------------------------------
    Atom  No    Charge         Core      Valence    Rydberg      Total
 -----------------------------------------------------------------------
      C    1   -0.42748      1.99901     4.40104    0.02743     6.42748
      C    2   -0.04660      1.99899     4.02798    0.01963     6.04660
      C    3   -0.06209      1.99898     4.04661    0.01650     6.06209
      C    4   -0.16747      1.99908     4.15107    0.01732     6.16747
      C    5   -0.20507      1.99914     4.18691    0.01902     6.20507
      H    6    0.20709      0.00000     0.79110    0.00181     0.79291
      H    7    0.20190      0.00000     0.79646    0.00164     0.79810
      C    8   -0.18454      1.99908     4.17022    0.01524     6.18454
      C    9   -0.17566      1.99908     4.15916    0.01742     6.17566
      H   10    0.20437      0.00000     0.79389    0.00174     0.79563
      H   11    0.20625      0.00000     0.79217    0.00158     0.79375
      C   12   -0.20420      1.99915     4.18680    0.01825     6.20420
      C   13   -0.19851      1.99916     4.18118    0.01816     6.19851
      H   14    0.20415      0.00000     0.79406    0.00179     0.79585
      H   15    0.20676      0.00000     0.79177    0.00147     0.79324
      H   16    0.20640      0.00000     0.79217    0.00143     0.79360
     Si   17    1.35695      9.99843     2.61401    0.03061    12.64305
      H   18   -0.18197      0.00000     1.17816    0.00381     1.18197
      C   19   -1.06744      1.99937     5.05872    0.00935     7.06744
      H   20    0.23248      0.00000     0.76650    0.00102     0.76752
      H   21    0.23228      0.00000     0.76684    0.00088     0.76772
      H   22    0.22615      0.00000     0.77267    0.00118     0.77385
      C   23   -1.06182      1.99935     5.05240    0.01007     7.06182
      H   24    0.22672      0.00000     0.77234    0.00094     0.77328
      H   25    0.23093      0.00000     0.76793    0.00113     0.76907
      H   26    0.22898      0.00000     0.76990    0.00112     0.77102
      C   27   -0.18857      1.99911     4.17083    0.01863     6.18857
 =======================================================================
   * Total *    0.00000     33.98794    65.75289    0.25917   100.00000

                      1                      2                      3
                      A                      A                      A
 Frequencies --     34.0101                73.7217               124.0758
 Red. masses --      3.0352                 3.4009                 3.0510
 Frc consts  --      0.0021                 0.0109                 0.0277
 IR Inten    --      0.0868                 0.0971                 0.0722

                      4                      5                      6
                      A                      A                      A
 Frequencies --    147.9732               168.0864               174.9328
 Red. masses --      1.1790                 2.9613                 1.7649
 Frc consts  --      0.0152                 0.0493                 0.0318
 IR Inten    --      0.0583                 0.7440                 0.6761

                      7                      8                      9
                      A                      A                      A
 Frequencies --    180.4824               195.6791               241.4458
 Red. masses --      1.4590                 2.6307                 3.5627
 Frc consts  --      0.0280                 0.0593                 0.1224
 IR Inten    --      0.5274                 0.4151                 2.4781

                     10                     11                     12
                      A                      A                      A
 Frequencies --    263.6645               364.1203               411.7848
 Red. masses --      3.3071                 5.3962                 3.9630
 Frc consts  --      0.1355                 0.4215                 0.3959
 IR Inten    --      5.0724                13.6927                 1.3971

                     13                     14                     15
                      A                      A                      A
 Frequencies --    419.4211               477.4147               522.9090
 Red. masses --      3.2326                 3.2689                 5.7142
 Frc consts  --      0.3350                 0.4390                 0.9206
 IR Inten    --      6.0017                 0.0573                 1.3275

                     16                     17                     18
                      A                      A                      A
 Frequencies --    531.0503               537.2603               635.2482
 Red. masses --      3.1505                 6.6250                 1.6172
 Frc consts  --      0.5235                 1.1267                 0.3845
 IR Inten    --      9.2131                 1.1127                 5.0770

                     19                     20                     21
                      A                      A                      A
 Frequencies --    643.3908               643.6678               680.4143
 Red. masses --      2.1741                 2.3987                 5.2265
 Frc consts  --      0.5303                 0.5855                 1.4256
 IR Inten    --     10.8026                 6.6902                 2.9376

                     22                     23                     24
                      A                      A                      A
 Frequencies --    699.4041               735.3231               750.5556
 Red. masses --      2.4241                 1.1783                 1.3783
 Frc consts  --      0.6987                 0.3754                 0.4575
 IR Inten    --     10.0562                11.0919                25.2578

                     25                     26                     27
                      A                      A                      A
 Frequencies --    779.2227               796.9469               807.4749
 Red. masses --      1.8627                 1.7686                 4.9955
 Frc consts  --      0.6664                 0.6618                 1.9191
 IR Inten    --     12.7688                94.2100                 1.7175

                     28                     29                     30
                      A                      A                      A
 Frequencies --    811.4925               826.4912               870.2669
 Red. masses --      1.5818                 3.8724                 1.4857
 Frc consts  --      0.6137                 1.5585                 0.6629
 IR Inten    --     26.8748                 1.1307                57.8002

                     31                     32                     33
                      A                      A                      A
 Frequencies --    874.7606               905.1211               914.8992
 Red. masses --      1.6727                 1.3868                 1.2395
 Frc consts  --      0.7541                 0.6694                 0.6113
 IR Inten    --      1.4905               210.2921               111.2466

                     34                     35                     36
                      A                      A                      A
 Frequencies --    933.5556               968.9368               992.5639
 Red. masses --      1.3859                 1.3536                 1.3385
 Frc consts  --      0.7116                 0.7488                 0.7769
 IR Inten    --      1.5254                 2.2506                 1.2944

                     37                     38                     39
                      A                      A                      A
 Frequencies --    995.9897               998.2994              1045.8105
 Red. masses --      5.3378                 1.3236                 2.5673
 Frc consts  --      3.1197                 0.7772                 1.6544
 IR Inten    --     33.9367                 0.5190                 9.3017

                     40                     41                     42
                      A                      A                      A
 Frequencies --   1079.0575              1165.0921              1172.0836
 Red. masses --      2.4055                 1.5323                 1.3672
 Frc consts  --      1.6502                 1.2255                 1.1066
 IR Inten    --      0.0612                 8.3887                 7.5219

                     43                     44                     45
                      A                      A                      A
 Frequencies --   1186.6431              1230.7582              1241.6934
 Red. masses --      1.1595                 2.0185                 1.7868
 Frc consts  --      0.9620                 1.8015                 1.6232
 IR Inten    --      0.2160                 3.2809                 5.0636

                     46                     47                     48
                      A                      A                      A
 Frequencies --   1285.4924              1294.6887              1302.0220
 Red. masses --      1.7440                 1.2441                 1.2262
 Frc consts  --      1.6980                 1.2287                 1.2247
 IR Inten    --      1.2062                34.4292                20.6357

                     49                     50                     51
                      A                      A                      A
 Frequencies --   1351.0087              1383.2232              1416.6445
 Red. masses --      3.0851                 7.7006                 1.8817
 Frc consts  --      3.3177                 8.6808                 2.2250
 IR Inten    --      8.2669                 0.0464                 1.5272

                     52                     53                     54
                      A                      A                      A
 Frequencies --   1458.5059              1460.5210              1462.0175
 Red. masses --      1.3741                 1.0544                 1.4244
 Frc consts  --      1.7222                 1.3252                 1.7939
 IR Inten    --      2.6458                 1.1542                 0.5823

                     55                     56                     57
                      A                      A                      A
 Frequencies --   1468.8937              1473.2810              1489.4572
 Red. masses --      1.0531                 1.0512                 2.1853
 Frc consts  --      1.3387                 1.3443                 2.8564
 IR Inten    --      5.9318                 6.2879                 1.8696

                     58                     59                     60
                      A                      A                      A
 Frequencies --   1540.2166              1601.7166              1627.9466
 Red. masses --      3.1253                 6.3196                 4.9698
 Frc consts  --      4.3682                 9.5524                 7.7601
 IR Inten    --     12.8268                 0.6085                 2.4684

                     61                     62                     63
                      A                      A                      A
 Frequencies --   1656.0594              2187.5650              3023.0965
 Red. masses --      5.7086                 1.0402                 1.0348
 Frc consts  --      9.2242                 2.9329                 5.5722
 IR Inten    --      0.9435               128.8219                 9.4113

                     64                     65                     66
                      A                      A                      A
 Frequencies --   3025.1525              3090.9005              3092.9522
 Red. masses --      1.0348                 1.1003                 1.0997
 Frc consts  --      5.5796                 6.1935                 6.1986
 IR Inten    --      7.1753                 0.1503                25.8362

                     67                     68                     69
                      A                      A                      A
 Frequencies --   3100.1967              3100.3540              3155.7263
 Red. masses --      1.1001                 1.1006                 1.0858
 Frc consts  --      6.2294                 6.2329                 6.3707
 IR Inten    --     13.8896                 8.8604                 0.3129

                     70                     71                     72
                      A                      A                      A
 Frequencies --   3158.2604              3165.8453              3168.0080
 Red. masses --      1.0859                 1.0896                 1.0883
 Frc consts  --      6.3819                 6.4345                 6.4355
 IR Inten    --      1.1072                11.6545                 9.8663

                     73                     74                     75
                      A                      A                      A
 Frequencies --   3181.3908              3182.0085              3191.0372
 Red. masses --      1.0949                 1.0941                 1.0964
 Frc consts  --      6.5293                 6.5272                 6.5780
 IR Inten    --     26.4778                29.8787                12.6008

 - Thermochemistry -
 -------------------
 Temperature   298.150 Kelvin.  Pressure   1.00000 Atm.
 Atom     1 has atomic number  6 and mass  12.00000

 Molecular mass:   186.08648 amu.
 Principal axes and moments of inertia in atomic units:
                           1         2         3
     Eigenvalues --  1540.422213410.752624630.66464
           X            1.00000   0.00298  -0.00091
           Y           -0.00299   0.99997  -0.00653
           Z            0.00089   0.00654   0.99998
 This molecule is an asymmetric top.
 Rotational symmetry number  1.
 Warning -- assumption of classical behavior for rotation
           may cause significant error
 Rotational temperatures (Kelvin)      0.05623     0.02539     0.01870
 Rotational constants (GHZ):           1.17159     0.52913     0.38974
 Zero-point vibrational energy     576285.3 (Joules/Mol)
                                  137.73550 (Kcal/Mol)
 Warning -- explicit consideration of  17 degrees of freedom as
           vibrations may cause significant error
 Vibrational temperatures:     48.93   106.07   178.52   212.90   241.84
          (Kelvin)            251.69   259.67   281.54   347.39   379.35
                              523.89   592.47   603.45   686.89   752.35
                              764.06   773.00   913.98   925.69   926.09
                              978.96  1006.29  1057.96  1079.88  1121.13
                             1146.63  1161.77  1167.56  1189.13  1252.12
                             1258.58  1302.27  1316.33  1343.18  1394.08
                             1428.08  1433.01  1436.33  1504.69  1552.52
                             1676.31  1686.36  1707.31  1770.78  1786.52
                             1849.53  1862.77  1873.32  1943.80  1990.15
                             2038.23  2098.46  2101.36  2103.51  2113.41
                             2119.72  2142.99  2216.03  2304.51  2342.25
                             2382.70  3147.41  4349.56  4352.51  4447.11
                             4450.06  4460.49  4460.71  4540.38  4544.03
                             4554.94  4558.05  4577.31  4578.19  4591.19

 Zero-point correction=                           0.219495 (Hartree/Particle)
 Thermal correction to Energy=                    0.232346
 Thermal correction to Enthalpy=                  0.233290
 Thermal correction to Gibbs Free Energy=         0.180221
 Sum of electronic and zero-point Energies=           -755.164993
 Sum of electronic and thermal Energies=              -755.152143
 Sum of electronic and thermal Enthalpies=            -755.151199
 Sum of electronic and thermal Free Energies=         -755.204268

                     E (Thermal)             CV                S
                      KCal/Mol        Cal/Mol-Kelvin    Cal/Mol-Kelvin
 Total                  145.799             50.482            111.693
 Electronic               0.000              0.000              0.000
 Translational            0.889              2.981             41.569
 Rotational               0.889              2.981             31.565
 Vibrational            144.022             44.521             38.559
 Vibration     1          0.594              1.983              5.581
 Vibration     2          0.599              1.966              4.051
 Vibration     3          0.610              1.929              3.036
 Vibration     4          0.617              1.905              2.698
 Vibration     5          0.625              1.882              2.457
 Vibration     6          0.627              1.873              2.382
 Vibration     7          0.629              1.866              2.323
 Vibration     8          0.636              1.846              2.173
 Vibration     9          0.658              1.777              1.792
 Vibration    10          0.670              1.739              1.637
 Vibration    11          0.738              1.546              1.104
 Vibration    12          0.776              1.445              0.920
 Vibration    13          0.782              1.428              0.894
 Vibration    14          0.834              1.300              0.717
 Vibration    15          0.878              1.199              0.603
 Vibration    16          0.886              1.181              0.585
 Vibration    17          0.892              1.168              0.571

 Optimization completed.
    -- Stationary point found.
 Normal termination of Gaussian 09 at Thu Aug 29 13:00:09 2024.
