 Gaussian 09, Revision D.01,
 Gaussian 09:  ES64L-G09RevD.01 24-Apr-2013

 ----------------------------------------------------------------------
 # opt freq=noraman b3lyp/6-311+g(d,p) pop=(npa,hirshfeld,chelpg,mbs) g
 eom=connectivity
 ----------------------------------------------------------------------

 -------------------
 Title Card Required
 -------------------
 Symbolic Z-matrix:
 Charge =  0 Multiplicity = 1

 SCF Done:  E(RB3LYP) =  -519.163483185     A.U. after   14 cycles
 SCF Done:  E(RB3LYP) =  -519.203637856     A.U. after   13 cycles
 SCF Done:  E(RB3LYP) =  -519.218742948     A.U. after   13 cycles
 SCF Done:  E(RB3LYP) =  -519.229586257     A.U. after   12 cycles
 SCF Done:  E(RB3LYP) =  -519.234131942     A.U. after   11 cycles
 SCF Done:  E(RB3LYP) =  -519.231573445     A.U. after   11 cycles
 SCF Done:  E(RB3LYP) =  -519.235714806     A.U. after    9 cycles
 SCF Done:  E(RB3LYP) =  -519.237172702     A.U. after   11 cycles
 SCF Done:  E(RB3LYP) =  -519.237634784     A.U. after   11 cycles
 SCF Done:  E(RB3LYP) =  -519.237701373     A.U. after   10 cycles
 SCF Done:  E(RB3LYP) =  -519.237713594     A.U. after    9 cycles
 SCF Done:  E(RB3LYP) =  -519.237716415     A.U. after    9 cycles
 SCF Done:  E(RB3LYP) =  -519.237719605     A.U. after    8 cycles
 SCF Done:  E(RB3LYP) =  -519.237720182     A.U. after    8 cycles
 SCF Done:  E(RB3LYP) =  -519.237720293     A.U. after    7 cycles
 SCF Done:  E(RB3LYP) =  -519.237720222     A.U. after    7 cycles
 Optimization completed.
    -- Stationary point found.
 Normal termination of Gaussian 09 at Tue Apr 23 14:01:09 2024.

 ----------------------------------------------------------------------
 #N Geom=AllCheck Guess=TCheck SCRF=Check GenChk RB3LYP/6-311+G(d,p) Fr
 eq
 ----------------------------------------------------------------------

 Structure from the checkpoint file:  "72.chk"
 -------------------
 Title Card Required
 -------------------
 Charge =  0 Multiplicity = 1

                         Standard orientation:
 ---------------------------------------------------------------------
 Center     Atomic      Atomic             Coordinates (Angstroms)
 Number     Number       Type             X           Y           Z
 ---------------------------------------------------------------------
      1          6           0        3.418813    0.657737   -0.545552
      2          6           0        3.865067   -0.731090   -0.159229
      3          6           0        2.668704   -0.106281    0.511221
      4          1           0        4.010765    1.505464   -0.224242
      5          1           0        2.925146    0.781018   -1.500579
      6          1           0        4.767889   -0.847728    0.427504
      7          1           0        3.678126   -1.531098   -0.865895
      8          1           0        2.794071    0.230955    1.536573
      9          7           0        1.377062   -0.644468    0.196394
     10          1           0        1.230288   -1.639495    0.273416
     11          6           0        0.252261    0.138214    0.175114
     12          8           0        0.249187    1.348021    0.256129
     13          8           0       -0.838950   -0.658018    0.036737
     14          6           0       -2.197160   -0.092220   -0.065798
     15          6           0       -2.305301    0.791790   -1.311210
     16          1           0       -3.345104    1.101203   -1.448579
     17          1           0       -1.685243    1.682181   -1.218218
     18          1           0       -1.996962    0.235293   -2.200208
     19          6           0       -3.065895   -1.342479   -0.212862
     20          1           0       -2.953598   -1.993956    0.656848
     21          1           0       -4.117659   -1.059147   -0.300043
     22          1           0       -2.783509   -1.905725   -1.105268
     23          6           0       -2.552036    0.665625    1.216462
     24          1           0       -3.601708    0.970162    1.179418
     25          1           0       -2.417286    0.020589    2.088774
     26          1           0       -1.933268    1.553753    1.333937
 ---------------------------------------------------------------------

 SCF Done:  E(RB3LYP) =  -519.237720222     A.U. after    1 cycles

 The electronic state is 1-A.
 Alpha  occ. eigenvalues --  -19.15270 -19.09060 -14.33835 -10.31476 -10.24465
 Alpha  occ. eigenvalues --  -10.21738 -10.18161 -10.17562 -10.16446 -10.15843
 Alpha  occ. eigenvalues --  -10.15824  -1.09899  -1.01269  -0.93884  -0.85094
 Alpha  occ. eigenvalues --   -0.80714  -0.69735  -0.69515  -0.65806  -0.61531
 Alpha  occ. eigenvalues --   -0.59036  -0.56635  -0.52291  -0.51013  -0.49182
 Alpha  occ. eigenvalues --   -0.46964  -0.46488  -0.44525  -0.43723  -0.41777
 Alpha  occ. eigenvalues --   -0.40975  -0.39336  -0.38892  -0.37518  -0.37105
 Alpha  occ. eigenvalues --   -0.35991  -0.35499  -0.33972  -0.32394  -0.30895
 Alpha  occ. eigenvalues --   -0.29716  -0.27428  -0.25831
 Alpha virt. eigenvalues --    0.00066   0.01080   0.01989   0.02027   0.02989
 Alpha virt. eigenvalues --    0.03392   0.03426   0.04432   0.04931   0.05586
 Alpha virt. eigenvalues --    0.06041   0.06083   0.06869   0.07057   0.07572

 Mulliken charges:
               1
     1  C   -0.270174
     2  C   -0.261896
     3  C   -0.074110
     4  H    0.147972
     5  H    0.162706
     6  H    0.149661
     7  H    0.146771
     8  H    0.154513
     9  N   -0.332081
    10  H    0.283055
    11  C    0.175973
    12  O   -0.319303
    13  O    0.005374
    14  C   -0.229776
    15  C   -0.356791
    16  H    0.136524
    17  H    0.183068
    18  H    0.145534
    19  C   -0.394777
    20  H    0.148454
    21  H    0.142916
    22  H    0.148934
    23  C   -0.355790
    24  H    0.136135
    25  H    0.143903
    26  H    0.183203
 Sum of Mulliken charges =   0.00000

 Dipole moment (field-independent basis, Debye):
    X=             -0.0214    Y=             -2.0695    Z=              0.0538  Tot=              2.0703
 Quadrupole moment (field-independent basis, Debye-Ang):
   XX=            -59.0233   YY=            -71.0153   ZZ=            -67.7931
   XY=             -2.0636   XZ=              1.7366   YZ=             -0.8009

  Exact polarizability: 133.132  -1.264 102.863  -0.298  -0.205  93.475
 Approx polarizability: 155.046  -3.035 156.964  -0.112   0.319 132.174

 ESP charges:
               1
     1  C   -0.187676
     2  C   -0.285630
     3  C    0.198438
     4  H    0.096914
     5  H    0.106686
     6  H    0.108824
     7  H    0.124069
     8  H    0.046935
     9  N   -0.621686
    10  H    0.322636
    11  C    0.981712
    12  O   -0.647539
    13  O   -0.695755
    14  C    0.895258
    15  C   -0.393540
    16  H    0.059475
    17  H    0.111407
    18  H    0.078822
    19  C   -0.386015
    20  H    0.088825
    21  H    0.068611
    22  H    0.088385
    23  C   -0.446309
    24  H    0.078206
    25  H    0.085872
    26  H    0.123073
 Sum of ESP charges =   0.00000

 Summary of Natural Population Analysis:

                                       Natural Population
                Natural  -----------------------------------------------
    Atom  No    Charge         Core      Valence    Rydberg      Total
 -----------------------------------------------------------------------
      C    1   -0.38587      1.99928     4.37198    0.01461     6.38587
      C    2   -0.40359      1.99928     4.39057    0.01374     6.40359
      C    3   -0.04072      1.99918     4.02000    0.02154     6.04072
      H    4    0.21009      0.00000     0.78826    0.00165     0.78991
      H    5    0.21665      0.00000     0.78151    0.00184     0.78335
      H    6    0.20984      0.00000     0.78863    0.00153     0.79016
      H    7    0.20940      0.00000     0.78861    0.00198     0.79060
      H    8    0.20052      0.00000     0.79747    0.00202     0.79948
      N    9   -0.65965      1.99931     5.64224    0.01809     7.65965
      H   10    0.39814      0.00000     0.59977    0.00209     0.60186
      C   11    0.92838      1.99942     3.02148    0.05072     5.07162
      O   12   -0.65383      1.99974     6.64389    0.01021     8.65383
      O   13   -0.61314      1.99970     6.59340    0.02004     8.61314
      C   14    0.27364      1.99911     3.70608    0.02117     5.72636
      C   15   -0.60558      1.99924     4.59500    0.01134     6.60558
      H   16    0.20458      0.00000     0.79425    0.00117     0.79542
      H   17    0.23125      0.00000     0.76729    0.00145     0.76875
      H   18    0.20498      0.00000     0.79367    0.00134     0.79502
      C   19   -0.58054      1.99924     4.56924    0.01205     6.58054
      H   20    0.20779      0.00000     0.79080    0.00140     0.79221
      H   21    0.20406      0.00000     0.79485    0.00109     0.79594
      H   22    0.20824      0.00000     0.79037    0.00139     0.79176
      C   23   -0.60535      1.99924     4.59473    0.01138     6.60535
      H   24    0.20427      0.00000     0.79456    0.00117     0.79573
      H   25    0.20439      0.00000     0.79425    0.00136     0.79561
      H   26    0.23203      0.00000     0.76655    0.00142     0.76797
 =======================================================================
   * Total *    0.00000     21.99274    63.77947    0.22779    86.00000

                      1                      2                      3
                      A                      A                      A
 Frequencies --     41.6215                55.7958                84.4279
 Red. masses --      2.9639                 3.5100                 4.4702
 Frc consts  --      0.0030                 0.0064                 0.0188
 IR Inten    --      1.0043                 2.6779                 2.2315

                      4                      5                      6
                      A                      A                      A
 Frequencies --    112.7865               122.9246               205.5457
 Red. masses --      3.1995                 4.0405                 1.0665
 Frc consts  --      0.0240                 0.0360                 0.0265
 IR Inten    --      1.1231                 1.5197                 0.2411

                      7                      8                      9
                      A                      A                      A
 Frequencies --    220.2315               251.8526               269.1214
 Red. masses --      3.5709                 1.0943                 1.1102
 Frc consts  --      0.1020                 0.0409                 0.0474
 IR Inten    --     10.2346                 0.0604                 0.2981

                     10                     11                     12
                      A                      A                      A
 Frequencies --    277.1860               320.7782               346.8277
 Red. masses --      2.8641                 2.9105                 2.5048
 Frc consts  --      0.1297                 0.1765                 0.1775
 IR Inten    --      0.9858                 6.4797                 0.9161

                     13                     14                     15
                      A                      A                      A
 Frequencies --    377.6227               423.2943               432.6290
 Red. masses --      3.3608                 2.6924                 2.7368
 Frc consts  --      0.2824                 0.2842                 0.3018
 IR Inten    --      6.2127                 0.9364                 3.8496

                     16                     17                     18
                      A                      A                      A
 Frequencies --    457.1874               490.2611               520.2918
 Red. masses --      2.8926                 1.1122                 2.5051
 Frc consts  --      0.3562                 0.1575                 0.3995
 IR Inten    --      1.4672                86.8784                 2.3872

                     19                     20                     21
                      A                      A                      A
 Frequencies --    742.5991               753.1659               775.5941
 Red. masses --      2.7560                 4.7335                 1.3414
 Frc consts  --      0.8955                 1.5820                 0.4754
 IR Inten    --      4.5646                 6.3058                 0.3976

                     22                     23                     24
                      A                      A                      A
 Frequencies --    783.3245               833.6696               841.3743
 Red. masses --      8.3756                 2.1040                 1.5134
 Frc consts  --      3.0279                 0.8616                 0.6312
 IR Inten    --     20.7292                14.6464                11.4512

                     25                     26                     27
                      A                      A                      A
 Frequencies --    873.1374               923.6547               925.9104
 Red. masses --      3.8172                 1.6491                 1.6906
 Frc consts  --      1.7146                 0.8289                 0.8539
 IR Inten    --      2.1806                 0.0421                 1.8413

                     28                     29                     30
                      A                      A                      A
 Frequencies --    943.9363               968.9480              1020.0417
 Red. masses --      3.2928                 1.2008                 2.7254
 Frc consts  --      1.7286                 0.6642                 1.6708
 IR Inten    --     20.3208                 0.0859                 2.0992

                     31                     32                     33
                      A                      A                      A
 Frequencies --   1047.7699              1050.5986              1054.5212
 Red. masses --      1.3286                 1.4056                 1.4445
 Frc consts  --      0.8593                 0.9141                 0.9464
 IR Inten    --     27.5640                 0.2687                 2.5486

                     34                     35                     36
                      A                      A                      A
 Frequencies --   1069.8621              1084.8533              1123.5802
 Red. masses --      1.3363                 3.1741                 1.1881
 Frc consts  --      0.9011                 2.2010                 0.8837
 IR Inten    --      5.1280                82.2813                 2.2893

                     37                     38                     39
                      A                      A                      A
 Frequencies --   1184.6504              1190.9900              1200.8357
 Red. masses --      2.4365                 1.4252                 2.2567
 Frc consts  --      2.0146                 1.1911                 1.9173
 IR Inten    --    534.8566                22.6851                 1.2108

                     40                     41                     42
                      A                      A                      A
 Frequencies --   1239.7849              1264.4615              1266.2439
 Red. masses --      2.3605                 2.7419                 1.7291
 Frc consts  --      2.1377                 2.5830                 1.6334
 IR Inten    --    124.5195                15.9252                63.1514

                     43                     44                     45
                      A                      A                      A
 Frequencies --   1281.2899              1396.5381              1398.6459
 Red. masses --      2.7424                 1.2770                 1.3069
 Frc consts  --      2.6526                 1.4674                 1.5063
 IR Inten    --      9.1863                21.5545                27.0178

                     46                     47                     48
                      A                      A                      A
 Frequencies --   1402.5926              1425.3499              1461.3622
 Red. masses --      1.4331                 1.2359                 1.0935
 Frc consts  --      1.6610                 1.4794                 1.3759
 IR Inten    --     10.3336                18.3980                 8.0113

                     49                     50                     51
                      A                      A                      A
 Frequencies --   1469.6680              1490.9627              1491.4674
 Red. masses --      1.0456                 1.0469                 1.0515
 Frc consts  --      1.3306                 1.3712                 1.3782
 IR Inten    --      0.2919                 2.1503                 1.5326

                     52                     53                     54
                      A                      A                      A
 Frequencies --   1496.0046              1501.4547              1505.7341
 Red. masses --      1.0828                 1.4770                 1.0518
 Frc consts  --      1.4278                 1.9618                 1.4051
 IR Inten    --     30.6994                78.2203                 1.9813

                     55                     56                     57
                      A                      A                      A
 Frequencies --   1514.1054              1528.2740              1774.0431
 Red. masses --      1.7006                 1.0945                10.4870
 Frc consts  --      2.2971                 1.5061                19.4460
 IR Inten    --    244.2778                71.8408               303.2490

                     58                     59                     60
                      A                      A                      A
 Frequencies --   3032.5770              3033.1549              3040.8723
 Red. masses --      1.0351                 1.0374                 1.0374
 Frc consts  --      5.6087                 5.6231                 5.6521
 IR Inten    --     10.4342                26.5876                24.0817

                     61                     62                     63
                      A                      A                      A
 Frequencies --   3092.6004              3094.8119              3105.9634
 Red. masses --      1.1018                 1.1017                 1.1027
 Frc consts  --      6.2090                 6.2170                 6.2675
 IR Inten    --      7.7021                16.9851                31.4363

                     64                     65                     66
                      A                      A                      A
 Frequencies --   3107.8764              3116.2366              3126.2019
 Red. masses --      1.1017                 1.0864                 1.0540
 Frc consts  --      6.2695                 6.2159                 6.0689
 IR Inten    --     48.8316                22.8341                15.0289

                     67                     68                     69
                      A                      A                      A
 Frequencies --   3135.5808              3137.7600              3140.0052
 Red. masses --      1.1001                 1.0577                 1.0993
 Frc consts  --      6.3724                 6.1353                 6.3862
 IR Inten    --      2.2964                 6.1170                11.5962

                     70                     71                     72
                      A                      A                      A
 Frequencies --   3207.6371              3226.9051              3621.6671
 Red. masses --      1.1192                 1.1171                 1.0768
 Frc consts  --      6.7847                 6.8536                 8.3219
 IR Inten    --      4.0679                13.1270                29.8876

 - Thermochemistry -
 -------------------
 Temperature   298.150 Kelvin.  Pressure   1.00000 Atm.
 Atom     1 has atomic number  6 and mass  12.00000

 Molecular mass:   157.11028 amu.
 Principal axes and moments of inertia in atomic units:
                           1         2         3
     Eigenvalues --   660.344103477.822753627.41535
           X            1.00000  -0.00084   0.00004
           Y            0.00084   0.99995  -0.00990
           Z           -0.00003   0.00990   0.99995
 This molecule is an asymmetric top.
 Rotational symmetry number  1.
 Warning -- assumption of classical behavior for rotation
           may cause significant error
 Rotational temperatures (Kelvin)      0.13116     0.02490     0.02388
 Rotational constants (GHZ):           2.73303     0.51893     0.49753
 Zero-point vibrational energy     589347.7 (Joules/Mol)
                                  140.85747 (Kcal/Mol)
 Warning -- explicit consideration of  18 degrees of freedom as
           vibrations may cause significant error
 Vibrational temperatures:     59.88    80.28   121.47   162.27   176.86
          (Kelvin)            295.73   316.86   362.36   387.21   398.81
                              461.53   499.01   543.31   609.03   622.46
                              657.79   705.38   748.58  1068.43  1083.64
                             1115.91  1127.03  1199.46  1210.55  1256.25
                             1328.93  1332.18  1358.11  1394.10  1467.61
                             1507.51  1511.58  1517.22  1539.29  1560.86
                             1616.58  1704.45  1713.57  1727.73  1783.77
                             1819.28  1821.84  1843.49  2009.30  2012.34
                             2018.02  2050.76  2102.57  2114.52  2145.16
                             2145.89  2152.41  2160.26  2166.41  2178.46
                             2198.84  2552.45  4363.20  4364.03  4375.13
                             4449.56  4452.74  4468.78  4471.54  4483.56
                             4497.90  4511.40  4514.53  4517.76  4615.07
                             4642.79  5210.76

 Zero-point correction=                           0.224471 (Hartree/Particle)
 Thermal correction to Energy=                    0.237100
 Thermal correction to Enthalpy=                  0.238044
 Thermal correction to Gibbs Free Energy=         0.185522
 Sum of electronic and zero-point Energies=           -519.013250
 Sum of electronic and thermal Energies=              -519.000620
 Sum of electronic and thermal Enthalpies=            -518.999676
 Sum of electronic and thermal Free Energies=         -519.052198

                     E (Thermal)             CV                S
                      KCal/Mol        Cal/Mol-Kelvin    Cal/Mol-Kelvin
 Total                  148.782             46.949            110.542
 Electronic               0.000              0.000              0.000
 Translational            0.889              2.981             41.065
 Rotational               0.889              2.981             30.500
 Vibrational            147.005             40.988             38.977
 Vibration     1          0.594              1.981              5.180
 Vibration     2          0.596              1.975              4.601
 Vibration     3          0.601              1.960              3.785
 Vibration     4          0.607              1.939              3.220
 Vibration     5          0.610              1.930              3.054
 Vibration     6          0.640              1.832              2.083
 Vibration     7          0.647              1.810              1.957
 Vibration     8          0.664              1.760              1.718
 Vibration     9          0.674              1.730              1.602
 Vibration    10          0.678              1.716              1.551
 Vibration    11          0.706              1.634              1.306
 Vibration    12          0.725              1.582              1.181
 Vibration    13          0.748              1.518              1.049
 Vibration    14          0.785              1.420              0.881
 Vibration    15          0.794              1.399              0.850
 Vibration    16          0.815              1.345              0.774
 Vibration    17          0.846              1.272              0.683
 Vibration    18          0.875              1.205              0.609

 Optimization completed.
    -- Stationary point found.
 Normal termination of Gaussian 09 at Tue Apr 23 14:04:25 2024.
