 Gaussian 09, Revision D.01,
 Gaussian 09:  ES64L-G09RevD.01 24-Apr-2013

 ----------------------------------------------------------------------
 # opt freq b3lyp/6-311+g(d,p) pop=(npa,hirshfeld,chelpg,mbs) geom=conn
 ectivity
 ----------------------------------------------------------------------

 --------
 Table2_4
 --------
 Symbolic Z-matrix:
 Charge =  0 Multiplicity = 1

 SCF Done:  E(RB3LYP) =  -1418.55419941     A.U. after   16 cycles
 SCF Done:  E(RB3LYP) =  -1418.58237509     A.U. after   17 cycles
 SCF Done:  E(RB3LYP) =  -1418.57509500     A.U. after   17 cycles
 SCF Done:  E(RB3LYP) =  -1418.58891434     A.U. after   14 cycles
 SCF Done:  E(RB3LYP) =  -1418.59113305     A.U. after   14 cycles
 SCF Done:  E(RB3LYP) =  -1418.59221441     A.U. after   14 cycles
 SCF Done:  E(RB3LYP) =  -1418.59248209     A.U. after   14 cycles
 SCF Done:  E(RB3LYP) =  -1418.59255353     A.U. after   13 cycles
 SCF Done:  E(RB3LYP) =  -1418.59257361     A.U. after   13 cycles
 SCF Done:  E(RB3LYP) =  -1418.59258067     A.U. after   12 cycles
 SCF Done:  E(RB3LYP) =  -1418.59258179     A.U. after   11 cycles
 SCF Done:  E(RB3LYP) =  -1418.59258228     A.U. after   11 cycles
 SCF Done:  E(RB3LYP) =  -1418.59258226     A.U. after    9 cycles
 Optimization completed.
    -- Stationary point found.
 Normal termination of Gaussian 09 at Wed Oct 13 17:08:40 2021.

 ----------------------------------------------------------------------
 #N Geom=AllCheck Guess=TCheck SCRF=Check GenChk RB3LYP/6-311+G(d,p) Fr
 eq
 ----------------------------------------------------------------------

 Structure from the checkpoint file:  "Table2_4.chk"
 --------
 Table2_4
 --------
 Charge =  0 Multiplicity = 1

                         Standard orientation:
 ---------------------------------------------------------------------
 Center     Atomic      Atomic             Coordinates (Angstroms)
 Number     Number       Type             X           Y           Z
 ---------------------------------------------------------------------
      1          6           0        0.366238   -1.412990   -0.681474
      2          6           0        0.960632   -0.180597   -0.613468
      3          6           0        0.203204    1.008362   -0.419397
      4          6           0       -1.217174    0.885008   -0.259891
      5          6           0       -1.841349   -0.409084   -0.299710
      6          6           0       -1.033165   -1.511107   -0.515634
      7          1           0        1.876890    2.366732   -0.554839
      8          1           0        0.966497   -2.296758   -0.848236
      9          6           0        0.808580    2.291458   -0.398893
     10          6           0       -1.959595    2.082993   -0.072936
     11          1           0       -1.468995   -2.502491   -0.569502
     12          6           0       -1.348872    3.314553   -0.045286
     13          6           0        0.048801    3.421058   -0.211041
     14          1           0       -3.035932    2.025731    0.033316
     15          1           0       -1.944142    4.209867    0.094002
     16          1           0        0.520463    4.397089   -0.202159
     17         14           0       -3.705122   -0.671600   -0.043002
     18          1           0       -4.449702    0.287607   -0.908016
     19          6           0       -4.184228   -0.356067    1.756703
     20          1           0       -3.927963    0.656927    2.077068
     21          1           0       -5.261148   -0.489592    1.898317
     22          1           0       -3.669472   -1.054741    2.422988
     23          6           0       -4.192393   -2.423160   -0.540765
     24          1           0       -5.276019   -2.541340   -0.446745
     25          1           0       -3.925111   -2.639886   -1.578424
     26          1           0       -3.725086   -3.178843    0.097179
     27         16           0        3.464018   -0.736049    0.185494
     28          6           0        3.179595    0.110843    1.747218
     29          1           0        3.878103   -0.325664    2.460503
     30          1           0        3.379398    1.170515    1.604413
     31          1           0        2.151855   -0.068146    2.058438
     32          8           0        3.136042   -2.142778    0.350672
     33          8           0        4.729175   -0.316924   -0.378579
     34          8           0        2.336802   -0.010980   -0.806685
 ---------------------------------------------------------------------

 SCF Done:  E(RB3LYP) =  -1418.59258226     A.U. after    1 cycles

 The electronic state is 1-A.
 Alpha  occ. eigenvalues --  -89.09507 -66.09589 -19.19279 -19.14262 -19.14076
 Alpha  occ. eigenvalues --  -10.25833 -10.23340 -10.20614 -10.20552 -10.19449
 Alpha  occ. eigenvalues --  -10.19187 -10.19156 -10.19150 -10.19113 -10.19076
 Alpha  occ. eigenvalues --  -10.18218 -10.15915 -10.15760  -8.15609  -6.12018
 Alpha  occ. eigenvalues --   -6.11784  -6.11646  -5.26917  -3.62749  -3.62722
 Alpha  occ. eigenvalues --   -3.62683  -1.16527  -1.07014  -1.03846  -0.89267
 Alpha  occ. eigenvalues --   -0.84211  -0.80461  -0.78805  -0.76325  -0.74201
 Alpha  occ. eigenvalues --   -0.71658  -0.69225  -0.67532  -0.64002  -0.63744
 Alpha  occ. eigenvalues --   -0.59695  -0.56491  -0.53936  -0.52172  -0.51850
 Alpha  occ. eigenvalues --   -0.51327  -0.50271  -0.48182  -0.47248  -0.46096
 Alpha  occ. eigenvalues --   -0.45641  -0.44977  -0.44145  -0.43641  -0.42442
 Alpha  occ. eigenvalues --   -0.42389  -0.41889  -0.40616  -0.40346  -0.40108
 Alpha  occ. eigenvalues --   -0.38687  -0.37539  -0.37215  -0.35634  -0.34835
 Alpha  occ. eigenvalues --   -0.34347  -0.33844  -0.32817  -0.32296  -0.32183
 Alpha  occ. eigenvalues --   -0.31595  -0.29480  -0.26685  -0.23607
 Alpha virt. eigenvalues --   -0.06961  -0.03784  -0.01609  -0.01541  -0.00455
 Alpha virt. eigenvalues --    0.00347   0.00756   0.01487   0.02008   0.02301
 Alpha virt. eigenvalues --    0.02916   0.03022   0.03668   0.04371   0.04499

 Mulliken charges:
               1
     1  C   -0.232228
     2  C   -0.488359
     3  C    0.698012
     4  C    0.612710
     5  C   -0.230994
     6  C   -0.077690
     7  H    0.139001
     8  H    0.163202
     9  C   -0.182839
    10  C   -0.101658
    11  H    0.136168
    12  C   -0.466124
    13  C   -0.436709
    14  H    0.127275
    15  H    0.127876
    16  H    0.129479
    17  Si   0.951329
    18  H   -0.146757
    19  C   -0.850336
    20  H    0.168686
    21  H    0.167420
    22  H    0.169706
    23  C   -0.806663
    24  H    0.169300
    25  H    0.173764
    26  H    0.167399
    27  S    0.347299
    28  C   -0.643556
    29  H    0.227838
    30  H    0.222761
    31  H    0.225754
    32  O   -0.174827
    33  O   -0.112791
    34  O   -0.173451
 Sum of Mulliken charges =   0.00000

 Dipole moment (field-independent basis, Debye):
    X=             -3.4812    Y=              1.8563    Z=              3.1680  Tot=              5.0597
 Quadrupole moment (field-independent basis, Debye-Ang):
   XX=           -133.9603   YY=           -117.7582   ZZ=           -121.9771
   XY=              9.3229   XZ=              9.3396   YZ=              2.3045

  Exact polarizability: 257.459   5.144 237.456  -5.577   8.305 141.756
 Approx polarizability: 366.897   2.166 405.447 -17.360  14.553 219.132

 ESP charges:
               1
     1  C   -0.248541
     2  C    0.278277
     3  C    0.002083
     4  C    0.214242
     5  C   -0.348238
     6  C   -0.009889
     7  H    0.104917
     8  H    0.178861
     9  C   -0.116246
    10  C   -0.228851
    11  H    0.088861
    12  C   -0.038698
    13  C   -0.116267
    14  H    0.137920
    15  H    0.084855
    16  H    0.099617
    17  Si   0.735780
    18  H   -0.219699
    19  C   -0.371803
    20  H    0.054872
    21  H    0.084077
    22  H    0.062334
    23  C   -0.398717
    24  H    0.084848
    25  H    0.073131
    26  H    0.085413
    27  S    1.186206
    28  C   -0.295412
    29  H    0.143975
    30  H    0.117897
    31  H    0.071182
    32  O   -0.549431
    33  O   -0.538244
    34  O   -0.409310
 Sum of ESP charges =   0.00000

 Summary of Natural Population Analysis:

                                       Natural Population
                Natural  -----------------------------------------------
    Atom  No    Charge         Core      Valence    Rydberg      Total
 -----------------------------------------------------------------------
      C    1   -0.22287      1.99887     4.20651    0.01748     6.22287
      C    2    0.29983      1.99864     3.67460    0.02693     5.70017
      C    3   -0.09307      1.99889     4.07494    0.01924     6.09307
      C    4   -0.04151      1.99900     4.02139    0.02113     6.04151
      C    5   -0.42541      1.99902     4.39929    0.02711     6.42541
      C    6   -0.18330      1.99913     4.16536    0.01881     6.18330
      H    7    0.22107      0.00000     0.77707    0.00186     0.77893
      H    8    0.23969      0.00000     0.75835    0.00196     0.76031
      C    9   -0.18489      1.99909     4.16870    0.01710     6.18489
      C   10   -0.18023      1.99908     4.16635    0.01480     6.18023
      H   11    0.20778      0.00000     0.79054    0.00168     0.79222
      C   12   -0.19512      1.99916     4.17799    0.01797     6.19512
      C   13   -0.19529      1.99915     4.17848    0.01766     6.19529
      H   14    0.20988      0.00000     0.78838    0.00173     0.79012
      H   15    0.20911      0.00000     0.78952    0.00138     0.79089
      H   16    0.20942      0.00000     0.78922    0.00136     0.79058
     Si   17    1.35534      9.99843     2.61584    0.03039    12.64466
      H   18   -0.17955      0.00000     1.17579    0.00376     1.17955
      C   19   -1.06184      1.99935     5.05247    0.01002     7.06184
      H   20    0.23037      0.00000     0.76855    0.00108     0.76963
      H   21    0.22877      0.00000     0.77032    0.00091     0.77123
      H   22    0.22947      0.00000     0.76942    0.00111     0.77053
      C   23   -1.06833      1.99936     5.05969    0.00928     7.06833
      H   24    0.23423      0.00000     0.76490    0.00087     0.76577
      H   25    0.23404      0.00000     0.76495    0.00100     0.76596
      H   26    0.22775      0.00000     0.77108    0.00117     0.77225
      S   27    2.24609      9.99873     3.54881    0.20636    13.75391
      C   28   -0.78926      1.99923     4.77625    0.01378     6.78926
      H   29    0.24506      0.00000     0.75352    0.00142     0.75494
      H   30    0.24051      0.00000     0.75794    0.00155     0.75949
      H   31    0.24243      0.00000     0.75614    0.00143     0.75757
      O   32   -0.88799      1.99980     6.87661    0.01158     8.88799
      O   33   -0.87190      1.99980     6.86016    0.01194     8.87190
      O   34   -0.73024      1.99974     6.70987    0.02063     8.73024
 =======================================================================
   * Total *    0.00002     51.98448    95.47902    0.53648   147.99998

                      1                      2                      3
                      A                      A                      A
 Frequencies --     27.5616                39.2496                45.8805
 Red. masses --      4.8090                 3.9683                 3.5672
 Frc consts  --      0.0022                 0.0036                 0.0044
 IR Inten    --      3.1536                 1.7216                 0.1225

                      4                      5                      6
                      A                      A                      A
 Frequencies --     57.9124                90.6187               128.5482
 Red. masses --      5.1864                 4.0507                 3.1542
 Frc consts  --      0.0102                 0.0196                 0.0307
 IR Inten    --      3.6157                 0.1859                 0.4232

                      7                      8                      9
                      A                      A                      A
 Frequencies --    146.7988               153.8940               169.1921
 Red. masses --      1.6539                 1.9395                 2.8880
 Frc consts  --      0.0210                 0.0271                 0.0487
 IR Inten    --      0.3743                 0.3066                 0.5597

                     10                     11                     12
                      A                      A                      A
 Frequencies --    174.7080               187.6701               195.2969
 Red. masses --      1.0476                 2.3494                 1.4250
 Frc consts  --      0.0188                 0.0488                 0.0320
 IR Inten    --      0.0406                 2.0584                 0.5506

                     13                     14                     15
                      A                      A                      A
 Frequencies --    206.8495               209.0834               248.8854
 Red. masses --      3.4755                 3.8306                 3.4834
 Frc consts  --      0.0876                 0.0987                 0.1271
 IR Inten    --      2.3421                 5.7716                 2.4714

                     16                     17                     18
                      A                      A                      A
 Frequencies --    266.5420               301.8787               327.7094
 Red. masses --      6.3824                 4.6627                 4.2542
 Frc consts  --      0.2672                 0.2504                 0.2692
 IR Inten    --      0.8239                 2.9867                 2.6060

                     19                     20                     21
                      A                      A                      A
 Frequencies --    364.8898               392.1994               426.6304
 Red. masses --      4.9740                 5.9233                 3.4956
 Frc consts  --      0.3902                 0.5368                 0.3749
 IR Inten    --      0.8708                11.9752                 5.7869

                     22                     23                     24
                      A                      A                      A
 Frequencies --    458.4099               475.5826               485.7386
 Red. masses --      5.3443                 3.4033                 8.3644
 Frc consts  --      0.6617                 0.4535                 1.1628
 IR Inten    --     13.8534                 1.2051                46.4084

                     25                     26                     27
                      A                      A                      A
 Frequencies --    506.1355               521.5808               561.8583
 Red. masses --      7.1110                 5.8563                 6.8324
 Frc consts  --      1.0733                 0.9387                 1.2708
 IR Inten    --     28.9479                 0.7392                39.0864

                     28                     29                     30
                      A                      A                      A
 Frequencies --    586.7235               626.7759               641.8262
 Red. masses --      4.1285                 3.4753                 1.1872
 Frc consts  --      0.8373                 0.8044                 0.2881
 IR Inten    --     47.6963                15.0269                12.6192

                     31                     32                     33
                      A                      A                      A
 Frequencies --    646.4943               661.5193               686.4789
 Red. masses --      3.2247                 4.2333                 5.6781
 Frc consts  --      0.7941                 1.0915                 1.5765
 IR Inten    --     23.5260                20.3949                11.2596

                     34                     35                     36
                      A                      A                      A
 Frequencies --    701.8714               739.5390               740.9462
 Red. masses --      2.3973                 1.4171                 6.4633
 Frc consts  --      0.6958                 0.4566                 2.0906
 IR Inten    --      9.6267                59.8497                62.4258

                     37                     38                     39
                      A                      A                      A
 Frequencies --    757.7540               775.4821               787.1663
 Red. masses --      4.4173                 1.5617                 1.7871
 Frc consts  --      1.4944                 0.5533                 0.6524
 IR Inten    --    131.6602                41.6596                52.2401

                     40                     41                     42
                      A                      A                      A
 Frequencies --    799.3720               808.2688               862.4713
 Red. masses --      2.5945                 4.9531                 1.3706
 Frc consts  --      0.9768                 1.9065                 0.6007
 IR Inten    --     28.5973                 0.6504                30.2419

                     43                     44                     45
                      A                      A                      A
 Frequencies --    868.6244               880.4346               900.6918
 Red. masses --      1.4635                 1.6264                 1.3842
 Frc consts  --      0.6506                 0.7428                 0.6616
 IR Inten    --     67.8954                 0.1596               170.5647

                     46                     47                     48
                      A                      A                      A
 Frequencies --    914.9468               963.2618               968.3918
 Red. masses --      1.2334                 4.3931                 1.3758
 Frc consts  --      0.6083                 2.4016                 0.7602
 IR Inten    --     88.2893               246.0353                 1.8759

                     49                     50                     51
                      A                      A                      A
 Frequencies --    977.6302               986.1691               988.9154
 Red. masses --      1.3452                 1.3772                 1.3719
 Frc consts  --      0.7575                 0.7891                 0.7905
 IR Inten    --      2.1938                 7.9669                44.6565

                     52                     53                     54
                      A                      A                      A
 Frequencies --   1003.7142              1042.3137              1055.0403
 Red. masses --      1.2927                 4.8026                 2.4748
 Frc consts  --      0.7673                 3.0741                 1.6230
 IR Inten    --      0.5363                52.3786                41.1915

                     55                     56                     57
                      A                      A                      A
 Frequencies --   1133.3076              1140.5604              1176.0417
 Red. masses --      3.8937                 4.1101                 1.4875
 Frc consts  --      2.9465                 3.1502                 1.2122
 IR Inten    --    259.8156                70.1232                 1.1779

                     58                     59                     60
                      A                      A                      A
 Frequencies --   1185.7768              1232.0709              1245.3887
 Red. masses --      1.2484                 1.8852                 2.0852
 Frc consts  --      1.0342                 1.6861                 1.9055
 IR Inten    --      0.1174                14.6098                 7.1541

                     61                     62                     63
                      A                      A                      A
 Frequencies --   1284.8765              1296.0279              1303.7825
 Red. masses --      1.7550                 1.2431                 1.2445
 Frc consts  --      1.7071                 1.2303                 1.2464
 IR Inten    --      4.3849                32.1328                23.1140

                     64                     65                     66
                      A                      A                      A
 Frequencies --   1327.7401              1344.2631              1353.9508
 Red. masses --      4.5835                12.7612                 1.2148
 Frc consts  --      4.7608                13.5866                 1.3121
 IR Inten    --     18.2535               249.9807                11.6442

                     67                     68                     69
                      A                      A                      A
 Frequencies --   1378.5093              1408.5579              1449.5793
 Red. masses --      7.5101                 1.9880                 1.9448
 Frc consts  --      8.4085                 2.3238                 2.4078
 IR Inten    --      1.6810                18.2299                 4.6873

                     70                     71                     72
                      A                      A                      A
 Frequencies --   1451.8964              1455.4079              1459.8569
 Red. masses --      1.1321                 1.0647                 1.0544
 Frc consts  --      1.4061                 1.3287                 1.3240
 IR Inten    --     16.1380                 6.0491                 2.5887

                     73                     74                     75
                      A                      A                      A
 Frequencies --   1460.9906              1468.9110              1472.6859
 Red. masses --      1.0666                 1.0525                 1.0513
 Frc consts  --      1.3413                 1.3380                 1.3434
 IR Inten    --      1.7392                 5.9918                 7.3616

                     76                     77                     78
                      A                      A                      A
 Frequencies --   1486.1629              1539.1087              1600.1678
 Red. masses --      2.3808                 3.1843                 6.4239
 Frc consts  --      3.0982                 4.4443                 9.6913
 IR Inten    --      6.1372                28.1603                11.0828

                     79                     80                     81
                      A                      A                      A
 Frequencies --   1624.1577              1654.7273              2191.6419
 Red. masses --      5.5975                 5.8200                 1.0402
 Frc consts  --      8.6996                 9.3891                 2.9438
 IR Inten    --     28.7493                 2.4609               129.8680

                     82                     83                     84
                      A                      A                      A
 Frequencies --   3023.9535              3026.0859              3067.2472
 Red. masses --      1.0349                 1.0349                 1.0282
 Frc consts  --      5.5755                 5.5837                 5.6993
 IR Inten    --      8.6321                 5.8392                 0.0399

                     85                     86                     87
                      A                      A                      A
 Frequencies --   3091.6365              3093.9314              3101.1197
 Red. masses --      1.1004                 1.0997                 1.0999
 Frc consts  --      6.1967                 6.2021                 6.2322
 IR Inten    --      1.6670                23.1954                12.6686

                     88                     89                     90
                      A                      A                      A
 Frequencies --   3101.6322              3165.2887              3168.2539
 Red. masses --      1.1007                 1.1062                 1.0862
 Frc consts  --      6.2386                 6.5302                 6.4237
 IR Inten    --      8.7087                 0.1101                 2.0362

                     91                     92                     93
                      A                      A                      A
 Frequencies --   3172.9713              3179.4405              3181.1018
 Red. masses --      1.0889                 1.1081                 1.0897
 Frc consts  --      6.4588                 6.6001                 6.4972
 IR Inten    --      8.6381                 0.0976                11.5948

                     94                     95                     96
                      A                      A                      A
 Frequencies --   3193.5567              3203.8598              3218.4602
 Red. masses --      1.0942                 1.0942                 1.0931
 Frc consts  --      6.5751                 6.6174                 6.6714
 IR Inten    --     12.8727                 6.8531                 0.6416

 - Thermochemistry -
 -------------------
 Temperature   298.150 Kelvin.  Pressure   1.00000 Atm.
 Atom     1 has atomic number  6 and mass  12.00000

 Molecular mass:   280.05894 amu.
 Principal axes and moments of inertia in atomic units:
                           1         2         3
     Eigenvalues --  3104.463418576.67237**********
           X            0.99975   0.02236   0.00134
           Y           -0.02237   0.99971   0.00891
           Z           -0.00114  -0.00894   0.99996
 This molecule is an asymmetric top.
 Rotational symmetry number  1.
 Warning -- assumption of classical behavior for rotation
           may cause significant error
 Rotational temperatures (Kelvin)      0.02790     0.01010     0.00813
 Rotational constants (GHZ):           0.58134     0.21042     0.16946
 Zero-point vibrational energy     685812.0 (Joules/Mol)
                                  163.91300 (Kcal/Mol)
 Warning -- explicit consideration of  28 degrees of freedom as
           vibrations may cause significant error
 Vibrational temperatures:     39.66    56.47    66.01    83.32   130.38
          (Kelvin)            184.95   211.21   221.42   243.43   251.37
                              270.02   280.99   297.61   300.82   358.09
                              383.49   434.34   471.50   524.99   564.29
                              613.83   659.55   684.26   698.87   728.22
                              750.44   808.39   844.16   901.79   923.44
                              930.16   951.78   987.69  1009.84  1064.03
                             1066.05  1090.24  1115.74  1132.56  1150.12
                             1162.92  1240.90  1249.76  1266.75  1295.89
                             1316.40  1385.92  1393.30  1406.59  1418.88
                             1422.83  1444.12  1499.66  1517.97  1630.57
                             1641.01  1692.06  1706.07  1772.67  1791.83
                             1848.65  1864.69  1875.85  1910.32  1934.09
                             1948.03  1983.36  2026.60  2085.62  2088.95
                             2094.00  2100.41  2102.04  2113.43  2118.86
                             2138.25  2214.43  2302.28  2336.80  2380.78
                             3153.28  4350.79  4353.86  4413.08  4448.17
                             4451.47  4461.81  4462.55  4554.14  4558.41
                             4565.19  4574.50  4576.89  4594.81  4609.63
                             4630.64

 Zero-point correction=                           0.261212 (Hartree/Particle)
 Thermal correction to Energy=                    0.280057
 Thermal correction to Enthalpy=                  0.281001
 Thermal correction to Gibbs Free Energy=         0.213424
 Sum of electronic and zero-point Energies=          -1418.331370
 Sum of electronic and thermal Energies=             -1418.312525
 Sum of electronic and thermal Enthalpies=           -1418.311581
 Sum of electronic and thermal Free Energies=        -1418.379159

                     E (Thermal)             CV                S
                      KCal/Mol        Cal/Mol-Kelvin    Cal/Mol-Kelvin
 Total                  175.738             71.677            142.229
 Electronic               0.000              0.000              0.000
 Translational            0.889              2.981             42.788
 Rotational               0.889              2.981             34.005
 Vibrational            173.961             65.715             65.436
 Vibration     1          0.593              1.984              5.998
 Vibration     2          0.594              1.981              5.297
 Vibration     3          0.595              1.979              4.987
 Vibration     4          0.596              1.974              4.527
 Vibration     5          0.602              1.956              3.647
 Vibration     6          0.611              1.925              2.968
 Vibration     7          0.617              1.906              2.713
 Vibration     8          0.619              1.898              2.624
 Vibration     9          0.625              1.880              2.444
 Vibration    10          0.627              1.874              2.384
 Vibration    11          0.632              1.857              2.251
 Vibration    12          0.636              1.846              2.177
 Vibration    13          0.641              1.830              2.071
 Vibration    14          0.642              1.827              2.052
 Vibration    15          0.662              1.765              1.738
 Vibration    16          0.672              1.734              1.619
 Vibration    17          0.694              1.670              1.406
 Vibration    18          0.711              1.620              1.271
 Vibration    19          0.738              1.545              1.101
 Vibration    20          0.760              1.487              0.992
 Vibration    21          0.788              1.412              0.870
 Vibration    22          0.816              1.342              0.771
 Vibration    23          0.832              1.304              0.722
 Vibration    24          0.842              1.282              0.695
 Vibration    25          0.861              1.236              0.643
 Vibration    26          0.877              1.202              0.606
 Vibration    27          0.918              1.114              0.520
 Vibration    28          0.944              1.060              0.473

 Optimization completed.
    -- Stationary point found.
 Normal termination of Gaussian 09 at Wed Oct 13 17:42:58 2021.
