 Gaussian 09, Revision D.01,
 Gaussian 09:  ES64L-G09RevD.01 24-Apr-2013

 ----------------------------------------------------------------------
 # opt freq=noraman b3lyp/6-311+g(d,p) geom=connectivity pop=(hirshfeld
 ,chelpg,mbs,npa)
 ----------------------------------------------------------------------

 -------------------
 Title Card Required
 -------------------
 Symbolic Z-matrix:
 Charge =  0 Multiplicity = 1

 SCF Done:  E(RB3LYP) =  -725.809735657     A.U. after   16 cycles
 SCF Done:  E(RB3LYP) =  -725.844689776     A.U. after   16 cycles
 SCF Done:  E(RB3LYP) =  -725.810133446     A.U. after   16 cycles
 SCF Done:  E(RB3LYP) =  -725.853616814     A.U. after   12 cycles
 SCF Done:  E(RB3LYP) =  -725.860522412     A.U. after   14 cycles
 SCF Done:  E(RB3LYP) =  -725.871538372     A.U. after   16 cycles
 SCF Done:  E(RB3LYP) =  -725.874293927     A.U. after   13 cycles
 SCF Done:  E(RB3LYP) =  -725.878522547     A.U. after   13 cycles
 SCF Done:  E(RB3LYP) =  -725.880768123     A.U. after   13 cycles
 SCF Done:  E(RB3LYP) =  -725.881366274     A.U. after   11 cycles
 SCF Done:  E(RB3LYP) =  -725.881416636     A.U. after   11 cycles
 SCF Done:  E(RB3LYP) =  -725.881500687     A.U. after   11 cycles
 SCF Done:  E(RB3LYP) =  -725.881511507     A.U. after   10 cycles
 SCF Done:  E(RB3LYP) =  -725.881513108     A.U. after    9 cycles
 SCF Done:  E(RB3LYP) =  -725.881513571     A.U. after    8 cycles
 Optimization completed.
    -- Stationary point found.
 Normal termination of Gaussian 09 at Tue Jan 10 17:42:04 2023.

 ----------------------------------------------------------------------
 #N Geom=AllCheck Guess=TCheck SCRF=Check GenChk RB3LYP/6-311+G(d,p) Fr
 eq
 ----------------------------------------------------------------------

 Structure from the checkpoint file:  "BocProc_Smith5.chk"
 -------------------
 Title Card Required
 -------------------
 Charge =  0 Multiplicity = 1

                         Standard orientation:
 ---------------------------------------------------------------------
 Center     Atomic      Atomic             Coordinates (Angstroms)
 Number     Number       Type             X           Y           Z
 ---------------------------------------------------------------------
      1          6           0        2.621918    0.957641    0.000234
      2          6           0        1.719296   -0.129299    0.000068
      3          6           0        4.364198   -0.664194   -0.000472
      4          6           0        3.991086    0.672715    0.000025
      5          6           0        1.839866    2.167576    0.000483
      6          6           0        0.530828    1.804988   -0.000116
      7          1           0        5.415795   -0.935026   -0.000608
      8          1           0        4.737610    1.458331    0.000235
      9          1           0        2.211943    3.180225    0.000701
     10          1           0       -0.361652    2.405810   -0.000394
     11          7           0        0.420650    0.408868   -0.000074
     12          6           0       -0.767659   -0.334636    0.000653
     13          8           0       -0.783456   -1.541463    0.001480
     14          8           0       -1.822295    0.487836    0.000193
     15          6           0       -3.215340   -0.038916   -0.000248
     16          7           0        3.499608   -1.695440   -0.000487
     17          6           0        2.190551   -1.443493   -0.000308
     18          1           0        1.514239   -2.287659   -0.000604
     19          6           0       -3.459017   -0.850436   -1.273409
     20          1           0       -2.866562   -1.763969   -1.285994
     21          1           0       -4.516808   -1.121153   -1.328056
     22          1           0       -3.216711   -0.256068   -2.157998
     23          6           0       -3.459913   -0.850104    1.273000
     24          1           0       -3.217780   -0.255541    2.157517
     25          1           0       -4.517823   -1.120366    1.327235
     26          1           0       -2.867714   -1.763796    1.286132
     27          6           0       -4.045557    1.243550   -0.000741
     28          1           0       -3.831028    1.843128   -0.888070
     29          1           0       -5.109325    0.995177   -0.000994
     30          1           0       -3.831524    1.843578    0.886410
 ---------------------------------------------------------------------

 SCF Done:  E(RB3LYP) =  -725.881513571     A.U. after    1 cycles

 The electronic state is 1-A.
 Alpha  occ. eigenvalues --  -19.18190 -19.12350 -14.39277 -14.30536 -10.35045
 Alpha  occ. eigenvalues --  -10.26516 -10.22718 -10.22237 -10.20698 -10.20084
 Alpha  occ. eigenvalues --  -10.19771 -10.18689 -10.18365 -10.18017 -10.17466
 Alpha  occ. eigenvalues --  -10.17465  -1.13348  -1.04607  -1.00529  -0.93719
 Alpha  occ. eigenvalues --   -0.84674  -0.82060  -0.77138  -0.76443  -0.71403
 Alpha  occ. eigenvalues --   -0.71205  -0.68282  -0.64574  -0.62181  -0.60989
 Alpha  occ. eigenvalues --   -0.56846  -0.53384  -0.51138  -0.50520  -0.49623
 Alpha  occ. eigenvalues --   -0.48399  -0.47953  -0.46698  -0.46003  -0.44737
 Alpha  occ. eigenvalues --   -0.44636  -0.43372  -0.43228  -0.41080  -0.40252
 Alpha  occ. eigenvalues --   -0.39804  -0.38728  -0.37976  -0.37600  -0.37051
 Alpha  occ. eigenvalues --   -0.36626  -0.35809  -0.32510  -0.30606  -0.30310
 Alpha  occ. eigenvalues --   -0.25642  -0.25621  -0.24050
 Alpha virt. eigenvalues --   -0.05173  -0.02137  -0.00788   0.00721   0.01321
 Alpha virt. eigenvalues --    0.01578   0.02148   0.02234   0.02735   0.04013
 Alpha virt. eigenvalues --    0.04066   0.04289   0.04633   0.05119   0.05661

 Mulliken charges:
               1
     1  C    1.421221
     2  C   -0.696065
     3  C   -0.160818
     4  C   -0.476810
     5  C   -0.395221
     6  C    0.243102
     7  H    0.130499
     8  H    0.124176
     9  H    0.126155
    10  H    0.155337
    11  N   -0.027935
    12  C    0.113597
    13  O   -0.245606
    14  O    0.044733
    15  C   -0.235448
    16  N   -0.088271
    17  C   -0.505258
    18  H    0.153283
    19  C   -0.331103
    20  H    0.186233
    21  H    0.145382
    22  H    0.152117
    23  C   -0.331323
    24  H    0.152117
    25  H    0.145357
    26  H    0.186256
    27  C   -0.461489
    28  H    0.160455
    29  H    0.154870
    30  H    0.160456
 Sum of Mulliken charges =   0.00000

 Dipole moment (field-independent basis, Debye):
    X=             -3.7592    Y=              3.8020    Z=             -0.0018  Tot=              5.3467
 Quadrupole moment (field-independent basis, Debye-Ang):
   XX=            -84.8738   YY=            -98.2460   ZZ=            -96.8466
   XY=              9.2185   XZ=              0.0060   YZ=              0.0045

  Exact polarizability: 223.652  -4.171 162.862  -0.004   0.004 104.133
 Approx polarizability: 306.993  -5.648 278.452  -0.002   0.005 154.676

 ESP charges:
               1
     1  C    0.452531
     2  C   -0.125103
     3  C    0.418577
     4  C   -0.510398
     5  C   -0.384901
     6  C    0.041118
     7  H    0.007609
     8  H    0.165941
     9  H    0.165330
    10  H    0.117492
    11  N   -0.227107
    12  C    0.804963
    13  O   -0.532048
    14  O   -0.545100
    15  C    0.743358
    16  N   -0.647662
    17  C    0.341116
    18  H    0.045358
    19  C   -0.305125
    20  H    0.081090
    21  H    0.057630
    22  H    0.057226
    23  C   -0.306259
    24  H    0.057548
    25  H    0.057921
    26  H    0.081363
    27  C   -0.353920
    28  H    0.085702
    29  H    0.070020
    30  H    0.085730
 Sum of ESP charges =   0.00000

 Summary of Natural Population Analysis:

                                       Natural Population
                Natural  -----------------------------------------------
    Atom  No    Charge         Core      Valence    Rydberg      Total
 -----------------------------------------------------------------------
      C    1   -0.06278      1.99900     4.04716    0.01662     6.06278
      C    2    0.12806      1.99892     3.85541    0.01761     5.87194
      C    3    0.03326      1.99921     3.93871    0.02882     5.96674
      C    4   -0.23113      1.99906     4.21631    0.01576     6.23113
      C    5   -0.26145      1.99907     4.24617    0.01622     6.26145
      C    6    0.02872      1.99916     3.95281    0.01931     5.97128
      H    7    0.18805      0.00000     0.81052    0.00143     0.81195
      H    8    0.21371      0.00000     0.78445    0.00184     0.78629
      H    9    0.22519      0.00000     0.77322    0.00159     0.77481
      H   10    0.22921      0.00000     0.76918    0.00161     0.77079
      N   11   -0.46052      1.99918     5.44343    0.01791     7.46052
      C   12    0.95848      1.99939     2.99331    0.04882     5.04152
      O   13   -0.61655      1.99973     6.60605    0.01077     8.61655
      O   14   -0.59154      1.99969     6.57353    0.01832     8.59154
      C   15    0.27919      1.99910     3.70106    0.02064     5.72081
      N   16   -0.45609      1.99944     5.43394    0.02270     7.45609
      C   17    0.04559      1.99910     3.92833    0.02698     5.95441
      H   18    0.21864      0.00000     0.77976    0.00161     0.78136
      C   19   -0.60749      1.99923     4.59689    0.01138     6.60749
      H   20    0.23168      0.00000     0.76686    0.00146     0.76832
      H   21    0.21023      0.00000     0.78864    0.00112     0.78977
      H   22    0.20857      0.00000     0.79014    0.00129     0.79143
      C   23   -0.60748      1.99923     4.59687    0.01138     6.60748
      H   24    0.20858      0.00000     0.79014    0.00129     0.79142
      H   25    0.21021      0.00000     0.78867    0.00112     0.78979
      H   26    0.23171      0.00000     0.76684    0.00146     0.76829
      C   27   -0.58423      1.99923     4.57280    0.01220     6.58423
      H   28    0.21040      0.00000     0.78827    0.00134     0.78960
      H   29    0.20936      0.00000     0.78959    0.00105     0.79064
      H   30    0.21041      0.00000     0.78825    0.00133     0.78959
 =======================================================================
   * Total *    0.00000     31.98774    83.67729    0.33497   116.00000

                      1                      2                      3
                      A                      A                      A
 Frequencies --     36.8422                41.7262                96.1336
 Red. masses --      3.7903                 4.0168                 4.4659
 Frc consts  --      0.0030                 0.0041                 0.0243
 IR Inten    --      0.0839                 1.6561                 1.0052

                      4                      5                      6
                      A                      A                      A
 Frequencies --    110.3137               113.2413               200.8410
 Red. masses --      5.6214                 3.7163                 1.1209
 Frc consts  --      0.0403                 0.0281                 0.0266
 IR Inten    --      0.3982                 0.0526                 0.1161

                      7                      8                      9
                      A                      A                      A
 Frequencies --    218.7154               219.5439               233.9337
 Red. masses --      3.8137                 4.7518                 3.6808
 Frc consts  --      0.1075                 0.1349                 0.1187
 IR Inten    --      1.0244                 0.2922                 5.8328

                     10                     11                     12
                      A                      A                      A
 Frequencies --    247.3224               261.0417               271.8290
 Red. masses --      1.1248                 4.3646                 1.0797
 Frc consts  --      0.0405                 0.1752                 0.0470
 IR Inten    --      0.0328                 0.8521                 0.0010

                     13                     14                     15
                      A                      A                      A
 Frequencies --    328.7377               351.6633               409.2048
 Red. masses --      3.2194                 2.5477                 3.9442
 Frc consts  --      0.2050                 0.1856                 0.3891
 IR Inten    --     10.4213                 1.5348                 1.6090

                     16                     17                     18
                      A                      A                      A
 Frequencies --    422.3636               428.2258               457.1330
 Red. masses --      2.9240                 3.3171                 2.9138
 Frc consts  --      0.3073                 0.3584                 0.3588
 IR Inten    --      8.1150                 0.0074                 2.8307

                     19                     20                     21
                      A                      A                      A
 Frequencies --    475.0644               517.2656               590.9042
 Red. masses --      2.7804                 5.6568                 4.5729
 Frc consts  --      0.3697                 0.8918                 0.9408
 IR Inten    --      8.4322                 1.7015                 1.3966

                     22                     23                     24
                      A                      A                      A
 Frequencies --    602.2366               612.4634               649.0821
 Red. masses --      6.2017                 4.0084                 6.9707
 Frc consts  --      1.3252                 0.8859                 1.7303
 IR Inten    --     18.2061                10.9980                 8.9509

                     25                     26                     27
                      A                      A                      A
 Frequencies --    741.7994               756.3026               774.3982
 Red. masses --      1.6344                 4.9492                 7.3525
 Frc consts  --      0.5299                 1.6679                 2.5978
 IR Inten    --     12.3334                 0.1059                31.7070

                     28                     29                     30
                      A                      A                      A
 Frequencies --    791.0278               796.4483               836.7135
 Red. masses --      3.0527                 5.6960                 4.6107
 Frc consts  --      1.1254                 2.1288                 1.9018
 IR Inten    --      3.7256                27.1827                 1.4968

                     31                     32                     33
                      A                      A                      A
 Frequencies --    838.3393               855.3142               901.3588
 Red. masses --      1.3528                 5.3715                 4.7322
 Frc consts  --      0.5602                 2.3152                 2.2652
 IR Inten    --     46.9523                21.9052                 4.1280

                     34                     35                     36
                      A                      A                      A
 Frequencies --    905.0290               925.9180               928.1944
 Red. masses --      1.3400                 1.6341                 1.6273
 Frc consts  --      0.6467                 0.8254                 0.8260
 IR Inten    --      1.1188                 0.0500                 0.4451

                     37                     38                     39
                      A                      A                      A
 Frequencies --    946.0092               974.0226               982.7296
 Red. masses --      1.2997                 1.2010                 1.4170
 Frc consts  --      0.6853                 0.6713                 0.8063
 IR Inten    --      1.5844                 0.0703                 0.2532

                     40                     41                     42
                      A                      A                      A
 Frequencies --   1035.8355              1053.6440              1058.2127
 Red. masses --      3.2853                 1.4131                 1.6556
 Frc consts  --      2.0769                 0.9243                 1.0923
 IR Inten    --    161.3138                 0.6961                 9.0588

                     43                     44                     45
                      A                      A                      A
 Frequencies --   1063.7115              1109.5746              1173.9089
 Red. masses --      1.7135                 1.4846                 2.8696
 Frc consts  --      1.1423                 1.0769                 2.3299
 IR Inten    --     25.0342               157.2556               505.5924

                     46                     47                     48
                      A                      A                      A
 Frequencies --   1194.5183              1203.0810              1238.5523
 Red. masses --      2.1703                 2.0599                 2.0216
 Frc consts  --      1.8245                 1.7566                 1.8271
 IR Inten    --     24.2953                33.8866               123.6492

                     49                     50                     51
                      A                      A                      A
 Frequencies --   1267.3834              1271.2713              1282.6705
 Red. masses --      2.7522                 3.3181                 2.8753
 Frc consts  --      2.6047                 3.1595                 2.7872
 IR Inten    --     15.6061               164.7341                27.7224

                     52                     53                     54
                      A                      A                      A
 Frequencies --   1305.0046              1337.0959              1360.0805
 Red. masses --      6.4442                 1.8528                 4.4170
 Frc consts  --      6.4661                 1.9517                 4.8140
 IR Inten    --      9.8360                 9.5801               569.5934

                     55                     56                     57
                      A                      A                      A
 Frequencies --   1400.2408              1404.7338              1406.5599
 Red. masses --      2.8917                 1.2641                 1.2882
 Frc consts  --      3.3404                 1.4697                 1.5016
 IR Inten    --     76.5625                22.3072                32.0712

                     58                     59                     60
                      A                      A                      A
 Frequencies --   1432.6289              1464.6801              1472.2435
 Red. masses --      1.2319                 2.8234                 1.0443
 Frc consts  --      1.4897                 3.5687                 1.3337
 IR Inten    --     21.8109               156.6077                 0.4087

                     61                     62                     63
                      A                      A                      A
 Frequencies --   1490.3954              1490.6404              1491.9390
 Red. masses --      2.4769                 1.0464                 1.0486
 Frc consts  --      3.2416                 1.3699                 1.3752
 IR Inten    --     19.2828                 0.2418                 0.6311

                     64                     65                     66
                      A                      A                      A
 Frequencies --   1499.2939              1504.6827              1526.2786
 Red. masses --      1.0708                 1.0553                 1.0560
 Frc consts  --      1.4181                 1.4077                 1.4493
 IR Inten    --     15.0075                 3.0673                24.7368

                     67                     68                     69
                      A                      A                      A
 Frequencies --   1551.8885              1608.2868              1631.0294
 Red. masses --      5.4002                 6.7614                 6.8992
 Frc consts  --      7.6627                10.3042                10.8137
 IR Inten    --     21.5075                38.7601                25.3665

                     70                     71                     72
                      A                      A                      A
 Frequencies --   1781.7866              3036.3710              3037.2638
 Red. masses --     11.9426                 1.0354                 1.0377
 Frc consts  --     22.3389                 5.6244                 5.6398
 IR Inten    --    267.9714                 7.7299                20.7250

                     73                     74                     75
                      A                      A                      A
 Frequencies --   3044.7025              3096.9938              3098.9065
 Red. masses --      1.0377                 1.1019                 1.1018
 Frc consts  --      5.6677                 6.2271                 6.2341
 IR Inten    --     19.6170                 6.2024                15.1834

                     76                     77                     78
                      A                      A                      A
 Frequencies --   3111.1155              3112.4990              3138.6233
 Red. masses --      1.1030                 1.1017                 1.1001
 Frc consts  --      6.2900                 6.2881                 6.3850
 IR Inten    --     26.6684                43.4636                 0.4974

                     79                     80                     81
                      A                      A                      A
 Frequencies --   3141.7126              3153.1067              3185.6573
 Red. masses --      1.0995                 1.0885                 1.0942
 Frc consts  --      6.3941                 6.3761                 6.5426
 IR Inten    --     11.6662                19.0624                19.7226

                     82                     83                     84
                      A                      A                      A
 Frequencies --   3212.1979              3242.1798              3287.4956
 Red. masses --      1.0923                 1.0942                 1.1004
 Frc consts  --      6.6404                 6.7769                 7.0067
 IR Inten    --      0.1891                 2.2839                 4.0429

 - Thermochemistry -
 -------------------
 Temperature   298.150 Kelvin.  Pressure   1.00000 Atm.
 Atom     1 has atomic number  6 and mass  12.00000

 Molecular mass:   218.10553 amu.
 Principal axes and moments of inertia in atomic units:
                           1         2         3
     Eigenvalues --  1292.362856213.085677100.03746
           X            0.99999   0.00507   0.00001
           Y           -0.00507   0.99999   0.00001
           Z           -0.00001  -0.00001   1.00000
 This molecule is an asymmetric top.
 Rotational symmetry number  1.
 Warning -- assumption of classical behavior for rotation
           may cause significant error
 Rotational temperatures (Kelvin)      0.06702     0.01394     0.01220
 Rotational constants (GHZ):           1.39647     0.29047     0.25419
 Zero-point vibrational energy     639165.4 (Joules/Mol)
                                  152.76420 (Kcal/Mol)
 Warning -- explicit consideration of  23 degrees of freedom as
           vibrations may cause significant error
 Vibrational temperatures:     53.01    60.03   138.31   158.72   162.93
          (Kelvin)            288.96   314.68   315.87   336.58   355.84
                              375.58   391.10   472.98   505.96   588.75
                              607.69   616.12   657.71   683.51   744.23
                              850.18   866.48   881.20   933.88  1067.28
                             1088.15  1114.18  1138.11  1145.91  1203.84
                             1206.18  1230.60  1296.85  1302.13  1332.19
                             1335.46  1361.09  1401.40  1413.93  1490.33
                             1515.96  1522.53  1530.44  1596.43  1688.99
                             1718.64  1730.96  1782.00  1823.48  1829.07
                             1845.47  1877.61  1923.78  1956.85  2014.63
                             2021.10  2023.72  2061.23  2107.35  2118.23
                             2144.34  2144.70  2146.56  2157.15  2164.90
                             2195.97  2232.82  2313.96  2346.68  2563.59
                             4368.66  4369.94  4380.64  4455.88  4458.63
                             4476.20  4478.19  4515.77  4520.22  4536.61
                             4583.44  4621.63  4664.77  4729.97

 Zero-point correction=                           0.243445 (Hartree/Particle)
 Thermal correction to Energy=                    0.257974
 Thermal correction to Enthalpy=                  0.258918
 Thermal correction to Gibbs Free Energy=         0.201760
 Sum of electronic and zero-point Energies=           -725.638068
 Sum of electronic and thermal Energies=              -725.623540
 Sum of electronic and thermal Enthalpies=            -725.622596
 Sum of electronic and thermal Free Energies=         -725.679753

                     E (Thermal)             CV                S
                      KCal/Mol        Cal/Mol-Kelvin    Cal/Mol-Kelvin
 Total                  161.881             56.465            120.298
 Electronic               0.000              0.000              0.000
 Translational            0.889              2.981             42.043
 Rotational               0.889              2.981             32.411
 Vibrational            160.103             50.504             45.844
 Vibration     1          0.594              1.982              5.422
 Vibration     2          0.594              1.981              5.175
 Vibration     3          0.603              1.952              3.531
 Vibration     4          0.606              1.941              3.263
 Vibration     5          0.607              1.938              3.213
 Vibration     6          0.638              1.839              2.125
 Vibration     7          0.646              1.813              1.970
 Vibration     8          0.647              1.811              1.963
 Vibration     9          0.654              1.789              1.849
 Vibration    10          0.661              1.767              1.750
 Vibration    11          0.669              1.744              1.655
 Vibration    12          0.675              1.725              1.585
 Vibration    13          0.712              1.618              1.266
 Vibration    14          0.728              1.572              1.159
 Vibration    15          0.774              1.450              0.929
 Vibration    16          0.785              1.422              0.884
 Vibration    17          0.790              1.409              0.864
 Vibration    18          0.815              1.345              0.774
 Vibration    19          0.832              1.305              0.724
 Vibration    20          0.872              1.212              0.616
 Vibration    21          0.948              1.051              0.466
 Vibration    22          0.961              1.027              0.446
 Vibration    23          0.972              1.005              0.429

 Normal termination of Gaussian 09 at Tue Jan 10 17:54:30 2023.
