 Gaussian 09, Revision D.01,
 Gaussian 09:  ES64L-G09RevD.01 24-Apr-2013

 ----------------------------------------------------------------------
 # opt freq b3lyp/6-311+g(d,p) geom=connectivity pop=(hirshfeld,chelpg,
 mbs,npa)
 ----------------------------------------------------------------------

 -------------------
 Title Card Required
 -------------------
 Symbolic Z-matrix:
 Charge =  0 Multiplicity = 2

 SCF Done:  E(UB3LYP) =  -895.308566818     A.U. after   30 cycles
 SCF Done:  E(UB3LYP) =  -896.086735067     A.U. after   17 cycles
 Error termination in NtrErr:
 SCF Done:  E(UB3LYP) =  -896.125082857     A.U. after   15 cycles
 SCF Done:  E(UB3LYP) =  -896.177697602     A.U. after   14 cycles
 SCF Done:  E(UB3LYP) =  -896.200381898     A.U. after   14 cycles
 SCF Done:  E(UB3LYP) =  -896.214221464     A.U. after   14 cycles
 SCF Done:  E(UB3LYP) =  -896.226041491     A.U. after   14 cycles
 SCF Done:  E(UB3LYP) =  -896.231716049     A.U. after   13 cycles
 SCF Done:  E(UB3LYP) =  -896.234408415     A.U. after   13 cycles
 SCF Done:  E(UB3LYP) =  -896.236134960     A.U. after   13 cycles
 SCF Done:  E(UB3LYP) =  -896.253651035     A.U. after   12 cycles
 SCF Done:  E(UB3LYP) =  -896.253745283     A.U. after   13 cycles
 SCF Done:  E(UB3LYP) =  -896.253820475     A.U. after   13 cycles
 SCF Done:  E(UB3LYP) =  -896.253835845     A.U. after   10 cycles
 SCF Done:  E(UB3LYP) =  -896.253838976     A.U. after   10 cycles
 SCF Done:  E(UB3LYP) =  -896.253840282     A.U. after   10 cycles
 SCF Done:  E(UB3LYP) =  -896.253840395     A.U. after    9 cycles
 SCF Done:  E(UB3LYP) =  -896.253840490     A.U. after    8 cycles
 SCF Done:  E(UB3LYP) =  -896.253840522     A.U. after    8 cycles
 Optimization completed.
    -- Stationary point found.
 Normal termination of Gaussian 09 at Sat Nov  6 14:50:14 2021.

 ----------------------------------------------------------------------
 #N Geom=AllCheck Guess=TCheck SCRF=Check GenChk UB3LYP/6-311+G(d,p) Fr
 eq
 ----------------------------------------------------------------------

 Structure from the checkpoint file:  "Figure2_10.chk"
 -------------------
 Title Card Required
 -------------------
 Charge =  0 Multiplicity = 2

                         Standard orientation:
 ---------------------------------------------------------------------
 Center     Atomic      Atomic             Coordinates (Angstroms)
 Number     Number       Type             X           Y           Z
 ---------------------------------------------------------------------
      1          6           0        2.278009   -0.606059   -1.427324
      2          6           0        2.670939   -1.810596   -0.558094
      3          6           0        1.359911   -2.192106    0.139339
      4          6           0        1.214919    0.121479   -0.580633
      5          1           0        3.118933    0.034153   -1.695630
      6          1           0        1.806330   -0.941836   -2.354555
      7          1           0        3.425956   -1.520046    0.174115
      8          1           0        3.072098   -2.638305   -1.145402
      9          1           0        0.786388   -2.912731   -0.454765
     10          1           0        1.517587   -2.625948    1.127462
     11          1           0        0.465922    0.623063   -1.195393
     12          7           0        0.603389   -0.920458    0.242062
     13          6           0       -0.799275   -1.030181    0.294966
     14          8           0       -1.235626   -1.997583    1.178578
     15          1           0       -1.222113   -1.634116    2.082233
     16          8           0       -1.417897    0.184744    0.366627
     17          6           0       -2.736742    0.368669   -0.262966
     18          6           0       -3.013675    1.857420   -0.058221
     19          1           0       -3.981849    2.123893   -0.489510
     20          1           0       -3.028225    2.100198    1.006468
     21          1           0       -2.240731    2.463133   -0.536146
     22          6           0       -3.798338   -0.482623    0.440759
     23          1           0       -4.783349   -0.259596    0.020955
     24          1           0       -3.601596   -1.548006    0.320501
     25          1           0       -3.824841   -0.254899    1.509391
     26          6           0       -2.649190    0.023926   -1.752073
     27          1           0       -2.380660   -1.025088   -1.894860
     28          1           0       -3.614329    0.200108   -2.234308
     29          1           0       -1.902288    0.646741   -2.251464
     30          6           0        1.831727    1.228907    0.284140
     31          9           0        2.863064    0.788943    1.045977
     32          9           0        0.946928    1.802214    1.114693
     33          9           0        2.327956    2.213530   -0.512283
 ---------------------------------------------------------------------

 SCF Done:  E(UB3LYP) =  -896.253840522     A.U. after    2 cycles

 The electronic state is 2-A.
 Alpha  occ. eigenvalues --  -24.70954 -24.70937 -24.70708 -19.14437 -19.14201
 Alpha  occ. eigenvalues --  -14.34224 -10.42051 -10.29056 -10.24434 -10.23787
 Alpha  occ. eigenvalues --  -10.20778 -10.19148 -10.18235 -10.16745 -10.16340
 Alpha  occ. eigenvalues --  -10.16173  -1.31480  -1.22690  -1.22624  -1.09318
 Alpha  occ. eigenvalues --   -1.02377  -0.95810  -0.82069  -0.79837  -0.77926
 Alpha  occ. eigenvalues --   -0.70398  -0.69995  -0.69801  -0.66682  -0.62487
 Alpha  occ. eigenvalues --   -0.61236  -0.59629  -0.58850  -0.58362  -0.55703
 Alpha  occ. eigenvalues --   -0.54051  -0.50904  -0.48461  -0.47494  -0.47338
 Alpha  occ. eigenvalues --   -0.47090  -0.46025  -0.45153  -0.44070  -0.43552
 Alpha  occ. eigenvalues --   -0.43035  -0.42708  -0.42385  -0.41471  -0.41243
 Alpha  occ. eigenvalues --   -0.40480  -0.39264  -0.38726  -0.37861  -0.37425
 Alpha  occ. eigenvalues --   -0.37075  -0.36559  -0.35675  -0.34946  -0.34598
 Alpha  occ. eigenvalues --   -0.31801  -0.29952  -0.28073  -0.16710
 Alpha virt. eigenvalues --   -0.00489   0.00505   0.00948   0.02112   0.02479
 Alpha virt. eigenvalues --    0.03005   0.03264   0.04371   0.04662   0.04964
 Alpha virt. eigenvalues --    0.05247   0.05789   0.06324   0.06794   0.06981

  Beta  occ. eigenvalues --  -24.70952 -24.70933 -24.70706 -19.14252 -19.14071
  Beta  occ. eigenvalues --  -14.33888 -10.42029 -10.27800 -10.24396 -10.23802
  Beta  occ. eigenvalues --  -10.20772 -10.19146 -10.18234 -10.16725 -10.16340
  Beta  occ. eigenvalues --  -10.16173  -1.31473  -1.22686  -1.22617  -1.08562
  Beta  occ. eigenvalues --   -1.01972  -0.95258  -0.81861  -0.79664  -0.77882
  Beta  occ. eigenvalues --   -0.70276  -0.69954  -0.69784  -0.66039  -0.62357
  Beta  occ. eigenvalues --   -0.60922  -0.59588  -0.58634  -0.57977  -0.55022
  Beta  occ. eigenvalues --   -0.53799  -0.50674  -0.48274  -0.47318  -0.47121
  Beta  occ. eigenvalues --   -0.46701  -0.45943  -0.44834  -0.43889  -0.43314
  Beta  occ. eigenvalues --   -0.42932  -0.42361  -0.42254  -0.41326  -0.41230
  Beta  occ. eigenvalues --   -0.40357  -0.39170  -0.38550  -0.37533  -0.37346
  Beta  occ. eigenvalues --   -0.36830  -0.36522  -0.35615  -0.34724  -0.34370
  Beta  occ. eigenvalues --   -0.31414  -0.29443  -0.26194
  Beta virt. eigenvalues --   -0.04886  -0.00112   0.00598   0.01136   0.02130
  Beta virt. eigenvalues --    0.02792   0.03008   0.03300   0.04445   0.04718
  Beta virt. eigenvalues --    0.04960   0.05251   0.05825   0.06369   0.06859

 Mulliken charges and spin densities:
               1          2
     1  C   -0.218786  -0.004589
     2  C   -0.517722  -0.001296
     3  C    0.038957  -0.041849
     4  C   -0.699489  -0.101892
     5  H    0.177857  -0.000041
     6  H    0.159585  -0.000024
     7  H    0.180387   0.000271
     8  H    0.162258  -0.000291
     9  H    0.149898   0.015849
    10  H    0.164798  -0.000355
    11  H    0.198414   0.012364
    12  N    0.136519   0.073944
    13  C   -0.183717   0.907110
    14  O   -0.178947  -0.058161
    15  H    0.213705   0.069637
    16  O   -0.045999   0.044444
    17  C   -0.019616   0.039856
    18  C   -0.380538   0.000217
    19  H    0.143599  -0.000188
    20  H    0.154315   0.000371
    21  H    0.153141   0.000167
    22  C   -0.542142  -0.011584
    23  H    0.139855  -0.000214
    24  H    0.177012  -0.000392
    25  H    0.146874   0.000191
    26  C   -0.337763  -0.003563
    27  H    0.157234   0.000390
    28  H    0.145416  -0.000892
    29  H    0.135510  -0.000126
    30  C    0.464669   0.061911
    31  F   -0.109022  -0.002261
    32  F   -0.050902  -0.000122
    33  F   -0.115361   0.001120
 Sum of Mulliken charges =   0.00000   1.00000

 Dipole moment (field-independent basis, Debye):
    X=             -0.9171    Y=             -1.3119    Z=             -1.7188  Tot=              2.3487
 Quadrupole moment (field-independent basis, Debye-Ang):
   XX=            -92.3090   YY=           -101.5354   ZZ=            -92.7769
   XY=             -8.6072   XZ=             -2.3414   YZ=             -0.9683

  Exact polarizability: 157.180  -7.444 133.222  -5.626  -4.454 126.383
 Approx polarizability: 192.731  -3.069 183.922  -2.568  -5.695 184.754

 ESP charges:
               1
     1  C   -0.014126
     2  C   -0.023569
     3  C    0.109061
     4  C   -0.061462
     5  H    0.027516
     6  H    0.038968
     7  H    0.035153
     8  H    0.014903
     9  H    0.028665
    10  H    0.020264
    11  H    0.090210
    12  N   -0.253348
    13  C    0.328929
    14  O   -0.595498
    15  H    0.400260
    16  O   -0.465911
    17  C    0.744341
    18  C   -0.386838
    19  H    0.071998
    20  H    0.093399
    21  H    0.090064
    22  C   -0.320029
    23  H    0.054440
    24  H    0.084403
    25  H    0.063595
    26  C   -0.315142
    27  H    0.048049
    28  H    0.063722
    29  H    0.063845
    30  C    0.701314
    31  F   -0.234760
    32  F   -0.243402
    33  F   -0.259013
 Sum of ESP charges =   0.00000

 Summary of Natural Population Analysis:

                                       Natural Population
                Natural  -----------------------------------------------
    Atom  No    Charge         Core      Valence    Rydberg      Total
 -----------------------------------------------------------------------
      C    1   -0.19509      0.99963     2.18830    0.00716     3.19509
      C    2   -0.19963      0.99965     2.19355    0.00643     3.19963
      C    3   -0.08409      0.99964     2.07512    0.00932     3.08409
      C    4   -0.04702      0.99954     2.03491    0.01257     3.04702
      H    5    0.11159      0.00000     0.38757    0.00084     0.38841
      H    6    0.10365      0.00000     0.39549    0.00085     0.39635
      H    7    0.10529      0.00000     0.39379    0.00092     0.39471
      H    8    0.10560      0.00000     0.39364    0.00076     0.39440
      H    9    0.10022      0.00000     0.39880    0.00098     0.39978
      H   10    0.10246      0.00000     0.39664    0.00090     0.39754
      H   11    0.12001      0.00000     0.37872    0.00127     0.37999
      N   12   -0.21409      0.99965     2.70350    0.01095     3.71409
      C   13    0.70789      0.99952     1.27313    0.01947     2.29211
      O   14   -0.36987      0.99986     3.36430    0.00571     4.36987
      H   15    0.25471      0.00000     0.24271    0.00258     0.24529
      O   16   -0.28758      0.99985     3.27750    0.01023     4.28758
      C   17    0.13922      0.99955     1.84935    0.01189     2.86078
      C   18   -0.29059      0.99962     2.28486    0.00611     3.29059
      H   19    0.10113      0.00000     0.39825    0.00062     0.39887
      H   20    0.10599      0.00000     0.39330    0.00071     0.39401
      H   21    0.10450      0.00000     0.39477    0.00073     0.39550
      C   22   -0.30138      0.99962     2.29598    0.00578     3.30138
      H   23    0.10150      0.00000     0.39780    0.00070     0.39850
      H   24    0.11091      0.00000     0.38837    0.00072     0.38909
      H   25    0.10310      0.00000     0.39614    0.00076     0.39690
      C   26   -0.29570      0.99962     2.29070    0.00538     3.29570
      H   27    0.10645      0.00000     0.39290    0.00065     0.39355
      H   28    0.10398      0.00000     0.39537    0.00064     0.39602
      H   29    0.10058      0.00000     0.39864    0.00078     0.39942
      C   30    0.53890      0.99959     1.43150    0.03001     2.46110
      F   31   -0.18374      0.99996     3.68027    0.00352     4.68374
      F   32   -0.17418      0.99996     3.66991    0.00431     4.67418
      F   33   -0.18471      0.99996     3.68156    0.00319     4.68471
 =======================================================================
   * Total *    0.50000     15.99520    46.83737    0.16744    63.00000

                      1                      2                      3
                      A                      A                      A
 Frequencies --     15.2781                33.6146                45.8270
 Red. masses --      3.0225                 5.0922                 9.4364
 Frc consts  --      0.0004                 0.0034                 0.0117
 IR Inten    --      0.1746                 0.6615                 0.0225

                      4                      5                      6
                      A                      A                      A
 Frequencies --     61.2948                73.0969               120.1493
 Red. masses --      5.3721                 3.9059                 3.0857
 Frc consts  --      0.0119                 0.0123                 0.0262
 IR Inten    --      2.4022                 1.1999                 2.3973

                      7                      8                      9
                      A                      A                      A
 Frequencies --    156.7078               178.9374               201.9193
 Red. masses --      3.8895                 3.3827                 1.2800
 Frc consts  --      0.0563                 0.0638                 0.0307
 IR Inten    --      5.9871                 3.2713                 0.3480

                     10                     11                     12
                      A                      A                      A
 Frequencies --    208.2939               220.8674               249.2134
 Red. masses --      1.3199                 1.6076                 2.7168
 Frc consts  --      0.0337                 0.0462                 0.0994
 IR Inten    --     69.2305                21.4332                 0.8882

                     13                     14                     15
                      A                      A                      A
 Frequencies --    263.0342               268.0956               281.1020
 Red. masses --      1.0875                 1.7653                 1.6831
 Frc consts  --      0.0443                 0.0748                 0.0784
 IR Inten    --      0.0150                 0.1433                 3.0413

                     16                     17                     18
                      A                      A                      A
 Frequencies --    305.4301               310.1572               340.1797
 Red. masses --      3.2337                 4.7636                 4.1576
 Frc consts  --      0.1777                 0.2700                 0.2835
 IR Inten    --     12.5636                 6.8163                 0.2634

                     19                     20                     21
                      A                      A                      A
 Frequencies --    354.0250               370.3539               415.7201
 Red. masses --      4.4595                 3.2114                 2.8483
 Frc consts  --      0.3293                 0.2595                 0.2900
 IR Inten    --      3.4467                 7.5962                 4.0919

                     22                     23                     24
                      A                      A                      A
 Frequencies --    464.0309               478.7352               508.1269
 Red. masses --      3.4695                 2.6496                 6.9824
 Frc consts  --      0.4402                 0.3578                 1.0622
 IR Inten    --     11.3428                 1.3889                 1.9191

                     25                     26                     27
                      A                      A                      A
 Frequencies --    528.3690               573.8687               582.0615
 Red. masses --     10.9528                 3.7446                 5.0794
 Frc consts  --      1.8016                 0.7266                 1.0139
 IR Inten    --      4.0848                19.6927                16.2238

                     28                     29                     30
                      A                      A                      A
 Frequencies --    605.0694               671.2694               739.1407
 Red. masses --      2.9405                 3.8819                 5.9167
 Frc consts  --      0.6343                 1.0306                 1.9045
 IR Inten    --      9.2648                20.6294                 2.1731

                     31                     32                     33
                      A                      A                      A
 Frequencies --    757.3602               795.0593               850.2858
 Red. masses --      4.4226                 4.5516                 2.9328
 Frc consts  --      1.4946                 1.6952                 1.2493
 IR Inten    --      4.4327                 6.3411                34.1259

                     34                     35                     36
                      A                      A                      A
 Frequencies --    864.4159               883.0767               903.7693
 Red. masses --      3.1918                 2.3216                 2.0056
 Frc consts  --      1.4052                 1.0667                 0.9652
 IR Inten    --     21.0523                 6.9406                49.0955

                     37                     38                     39
                      A                      A                      A
 Frequencies --    916.3499               924.3921               929.8249
 Red. masses --      1.6547                 1.7171                 2.1404
 Frc consts  --      0.8187                 0.8645                 1.0903
 IR Inten    --      0.2090                 1.2745                17.0707

                     40                     41                     42
                      A                      A                      A
 Frequencies --    965.7430               982.7517              1018.2085
 Red. masses --      1.2043                 2.0637                 3.5236
 Frc consts  --      0.6618                 1.1743                 2.1523
 IR Inten    --      0.0334                10.5247                17.4236

                     43                     44                     45
                      A                      A                      A
 Frequencies --   1046.3818              1050.9270              1056.9775
 Red. masses --      1.4208                 1.4325                 1.8902
 Frc consts  --      0.9166                 0.9322                 1.2442
 IR Inten    --      1.3253                 1.9484                66.3421

                     46                     47                     48
                      A                      A                      A
 Frequencies --   1072.8419              1114.4376              1140.3408
 Red. masses --      2.7726                 5.5795                 6.2057
 Frc consts  --      1.8802                 4.0828                 4.7546
 IR Inten    --     64.3076               199.1055               209.4909

                     49                     50                     51
                      A                      A                      A
 Frequencies --   1158.7562              1179.2148              1190.4905
 Red. masses --      2.6319                 2.1947                 1.9073
 Frc consts  --      2.0821                 1.7981                 1.5927
 IR Inten    --     39.3248                97.3937                88.5471

                     52                     53                     54
                      A                      A                      A
 Frequencies --   1199.3251              1238.5582              1252.7033
 Red. masses --      1.9838                 2.7394                 1.8189
 Frc consts  --      1.6812                 2.4759                 1.6817
 IR Inten    --    212.1902                40.8238                77.1174

                     55                     56                     57
                      A                      A                      A
 Frequencies --   1253.6647              1259.1459              1280.4111
 Red. masses --      1.6146                 2.5674                 2.4467
 Frc consts  --      1.4952                 2.3983                 2.3633
 IR Inten    --     73.3078                 2.2403                57.6375

                     58                     59                     60
                      A                      A                      A
 Frequencies --   1284.3426              1296.0183              1331.8195
 Red. masses --      1.7691                 1.7455                 1.4638
 Frc consts  --      1.7193                 1.7274                 1.5298
 IR Inten    --     71.0648                46.2595                54.8389

                     61                     62                     63
                      A                      A                      A
 Frequencies --   1339.7311              1354.6638              1378.6240
 Red. masses --      3.5351                 1.3162                 1.4973
 Frc consts  --      3.7384                 1.4231                 1.6767
 IR Inten    --    208.6679                 3.2613                24.0600

                     64                     65                     66
                      A                      A                      A
 Frequencies --   1396.8267              1403.6274              1407.4825
 Red. masses --      1.2799                 1.2766                 1.5835
 Frc consts  --      1.4713                 1.4819                 1.8482
 IR Inten    --     21.7932                17.5038                44.8002

                     67                     68                     69
                      A                      A                      A
 Frequencies --   1428.1369              1470.8224              1486.4247
 Red. masses --      1.2349                 1.0471                 1.0451
 Frc consts  --      1.4840                 1.3346                 1.3605
 IR Inten    --     13.5114                 0.3220                 0.5595

                     70                     71                     72
                      A                      A                      A
 Frequencies --   1488.6318              1494.9653              1496.5471
 Red. masses --      1.0455                 1.0865                 1.0577
 Frc consts  --      1.3651                 1.4306                 1.3957
 IR Inten    --      0.2904                 6.6692                 4.4956

                     73                     74                     75
                      A                      A                      A
 Frequencies --   1500.2624              1507.3647              1520.5681
 Red. masses --      1.0666                 1.0888                 1.0552
 Frc consts  --      1.4145                 1.4576                 1.4374
 IR Inten    --      5.4741                 5.6280                14.3128

                     76                     77                     78
                      A                      A                      A
 Frequencies --   1526.5870              3014.8937              3029.0371
 Red. masses --      1.0946                 1.0706                 1.0347
 Frc consts  --      1.5030                 5.7334                 5.5934
 IR Inten    --      2.7955                41.5713                20.9123

                     79                     80                     81
                      A                      A                      A
 Frequencies --   3032.7046              3040.1611              3052.6769
 Red. masses --      1.0357                 1.0360                 1.0671
 Frc consts  --      5.6126                 5.6414                 5.8592
 IR Inten    --     12.4805                17.9117                14.9306

                     82                     83                     84
                      A                      A                      A
 Frequencies --   3066.7263              3087.1572              3090.2346
 Red. masses --      1.0613                 1.0931                 1.0852
 Frc consts  --      5.8810                 6.1383                 6.1055
 IR Inten    --     22.7074                29.0161                 6.3977

                     85                     86                     87
                      A                      A                      A
 Frequencies --   3093.2573              3095.8253              3103.7925
 Red. masses --      1.1015                 1.1016                 1.1023
 Frc consts  --      6.2099                 6.2208                 6.2563
 IR Inten    --     10.1045                17.9697                14.4881

                     88                     89                     90
                      A                      A                      A
 Frequencies --   3104.8829              3108.3565              3109.9473
 Red. masses --      1.1007                 1.1017                 1.1026
 Frc consts  --      6.2519                 6.2714                 6.2830
 IR Inten    --     15.2299                52.0950                27.2669

                     91                     92                     93
                      A                      A                      A
 Frequencies --   3116.1141              3126.1508              3601.6266
 Red. masses --      1.1050                 1.1005                 1.0638
 Frc consts  --      6.3219                 6.3369                 8.1301
 IR Inten    --     24.5637                16.0045                15.5720

 - Thermochemistry -
 -------------------
 Temperature   298.150 Kelvin.  Pressure   1.00000 Atm.
 Atom     1 has atomic number  6 and mass  12.00000

 Molecular mass:   240.12114 amu.
 Principal axes and moments of inertia in atomic units:
                           1         2         3
     Eigenvalues --  2320.887824841.164955851.64056
           X            0.99847  -0.05499  -0.00588
           Y            0.05493   0.99844  -0.01035
           Z            0.00644   0.01001   0.99993
 This molecule is an asymmetric top.
 Rotational symmetry number  1.
 Warning -- assumption of classical behavior for rotation
           may cause significant error
 Rotational temperatures (Kelvin)      0.03732     0.01789     0.01480
 Rotational constants (GHZ):           0.77761     0.37279     0.30842
 Zero-point vibrational energy     705176.9 (Joules/Mol)
                                  168.54133 (Kcal/Mol)
 Warning -- explicit consideration of  28 degrees of freedom as
           vibrations may cause significant error
 Vibrational temperatures:     21.98    48.36    65.93    88.19   105.17
          (Kelvin)            172.87   225.47   257.45   290.52   299.69
                              317.78   358.56   378.45   385.73   404.44
                              439.45   446.25   489.44   509.36   532.86
                              598.13   667.64   688.79   731.08   760.20
                              825.67   837.46   870.56   965.81  1063.46
                             1089.67  1143.91  1223.37  1243.70  1270.55
                             1300.32  1318.42  1329.99  1337.81  1389.49
                             1413.96  1464.97  1505.51  1512.05  1520.75
                             1543.58  1603.43  1640.69  1667.19  1696.62
                             1712.85  1725.56  1782.01  1802.36  1803.74
                             1811.63  1842.22  1847.88  1864.68  1916.19
                             1927.57  1949.06  1983.53  2009.72  2019.50
                             2025.05  2054.77  2116.18  2138.63  2141.81
                             2150.92  2153.19  2158.54  2168.76  2187.76
                             2196.42  4337.75  4358.10  4363.38  4374.11
                             4392.12  4412.33  4441.73  4446.15  4450.50
                             4454.20  4465.66  4467.23  4472.23  4474.51
                             4483.39  4497.83  5181.93

 Zero-point correction=                           0.268588 (Hartree/Particle)
 Thermal correction to Energy=                    0.285993
 Thermal correction to Enthalpy=                  0.286937
 Thermal correction to Gibbs Free Energy=         0.221460
 Sum of electronic and zero-point Energies=           -895.985253
 Sum of electronic and thermal Energies=              -895.967848
 Sum of electronic and thermal Enthalpies=            -895.966904
 Sum of electronic and thermal Free Energies=         -896.032381

                     E (Thermal)             CV                S
                      KCal/Mol        Cal/Mol-Kelvin    Cal/Mol-Kelvin
 Total                  179.463             64.791            137.808
 Electronic               0.000              0.000              1.377
 Translational            0.889              2.981             42.329
 Rotational               0.889              2.981             32.553
 Vibrational            177.686             58.829             61.549
 Vibration     1          0.593              1.986              7.169
 Vibration     2          0.594              1.983              5.604
 Vibration     3          0.595              1.979              4.990
 Vibration     4          0.597              1.973              4.415
 Vibration     5          0.599              1.967              4.068
 Vibration     6          0.609              1.932              3.098
 Vibration     7          0.620              1.895              2.589
 Vibration     8          0.629              1.868              2.339
 Vibration     9          0.639              1.837              2.116
 Vibration    10          0.642              1.828              2.059
 Vibration    11          0.648              1.809              1.952
 Vibration    12          0.662              1.764              1.736
 Vibration    13          0.670              1.741              1.642
 Vibration    14          0.673              1.732              1.608
 Vibration    15          0.681              1.709              1.527
 Vibration    16          0.696              1.663              1.387
 Vibration    17          0.699              1.654              1.361
 Vibration    18          0.720              1.595              1.211
 Vibration    19          0.730              1.567              1.148
 Vibration    20          0.742              1.533              1.078
 Vibration    21          0.779              1.436              0.907
 Vibration    22          0.822              1.330              0.754
 Vibration    23          0.835              1.297              0.713
 Vibration    24          0.863              1.232              0.638
 Vibration    25          0.883              1.187              0.591
 Vibration    26          0.930              1.088              0.497
 Vibration    27          0.939              1.070              0.482
 Vibration    28          0.964              1.021              0.441

 Normal termination of Gaussian 09 at Sat Nov  6 15:38:47 2021.
