 Gaussian 09, Revision D.01,
 Gaussian 09:  ES64L-G09RevD.01 24-Apr-2013

 ----------------------------------------------------------------------
 # opt freq b3lyp/6-311+g(d,p) pop=(npa,hirshfeld,chelpg,mbs) geom=conn
 ectivity
 ----------------------------------------------------------------------

 --------
 Table2_7
 --------
 Symbolic Z-matrix:
 Charge =  0 Multiplicity = 1

 SCF Done:  E(RB3LYP) =  -889.359510712     A.U. after   14 cycles
 SCF Done:  E(RB3LYP) =  -889.377568153     A.U. after   13 cycles
 SCF Done:  E(RB3LYP) =  -889.380971853     A.U. after   13 cycles
 SCF Done:  E(RB3LYP) =  -889.382067485     A.U. after   13 cycles
 SCF Done:  E(RB3LYP) =  -889.382262306     A.U. after   12 cycles
 SCF Done:  E(RB3LYP) =  -889.382371240     A.U. after   12 cycles
 SCF Done:  E(RB3LYP) =  -889.382402832     A.U. after   11 cycles
 SCF Done:  E(RB3LYP) =  -889.382410524     A.U. after   11 cycles
 SCF Done:  E(RB3LYP) =  -889.382412803     A.U. after   10 cycles
 SCF Done:  E(RB3LYP) =  -889.382412979     A.U. after    9 cycles
 Optimization completed.
    -- Stationary point found.
 Normal termination of Gaussian 09 at Wed Oct 13 17:04:36 2021.

 ----------------------------------------------------------------------
 #N Geom=AllCheck Guess=TCheck SCRF=Check GenChk RB3LYP/6-311+G(d,p) Fr
 eq
 ----------------------------------------------------------------------

 Structure from the checkpoint file:  "Table2_7.chk"
 --------
 Table2_7
 --------
 Charge =  0 Multiplicity = 1

                         Standard orientation:
 ---------------------------------------------------------------------
 Center     Atomic      Atomic             Coordinates (Angstroms)
 Number     Number       Type             X           Y           Z
 ---------------------------------------------------------------------
      1          6           0        0.233342    2.434396    0.502106
      2          6           0       -0.949223    1.739326    0.448320
      3          6           0       -0.967731    0.361670    0.111100
      4          6           0        0.279497   -0.313319   -0.106382
      5          6           0        1.511280    0.427759   -0.059526
      6          6           0        1.453789    1.781443    0.225878
      7          1           0        0.235516    3.485581    0.769607
      8          6           0       -2.201878   -0.373979    0.029512
      9          6           0        0.256164   -1.716395   -0.336055
     10          1           0        2.365539    2.368563    0.259972
     11          6           0       -0.928056   -2.409498   -0.336776
     12          6           0       -2.158355   -1.741739   -0.162115
     13          1           0        1.183613   -2.246487   -0.512592
     14          1           0       -0.928212   -3.481673   -0.500545
     15          1           0       -3.075903   -2.314506   -0.207114
     16         14           0        3.211807   -0.371412   -0.323563
     17          1           0        3.156696   -1.262584   -1.518159
     18          6           0        3.719420   -1.405460    1.174224
     19          1           0        2.998099   -2.198360    1.387249
     20          1           0        4.694823   -1.873617    1.009183
     21          1           0        3.794279   -0.777951    2.067409
     22          6           0        4.515065    0.955348   -0.646375
     23          1           0        5.474361    0.479839   -0.872247
     24          1           0        4.248331    1.585262   -1.499241
     25          1           0        4.668329    1.603848    0.221049
     26          1           0       -1.884260    2.226404    0.691729
     27          7           0       -3.425876    0.335381    0.178109
     28          6           0       -3.798599    1.168546   -0.969492
     29          1           0       -4.186296    0.563238   -1.805717
     30          1           0       -4.576166    1.876293   -0.668763
     31          1           0       -2.939917    1.732646   -1.329902
     32          6           0       -4.563877   -0.422239    0.679456
     33          1           0       -5.351842    0.279414    0.965477
     34          1           0       -4.992970   -1.118316   -0.061629
     35          1           0       -4.273206   -0.990632    1.564100
 ---------------------------------------------------------------------

 SCF Done:  E(RB3LYP) =  -889.382412979     A.U. after    1 cycles

 The electronic state is 1-A.
 Alpha  occ. eigenvalues --  -66.08429 -14.32292 -10.21138 -10.19590 -10.19583
 Alpha  occ. eigenvalues --  -10.18724 -10.18339 -10.17652 -10.17558 -10.17404
 Alpha  occ. eigenvalues --  -10.17336 -10.17149 -10.16981 -10.16653 -10.14973
 Alpha  occ. eigenvalues --  -10.14704  -5.25755  -3.61585  -3.61559  -3.61524
 Alpha  occ. eigenvalues --   -0.94339  -0.86825  -0.82127  -0.77089  -0.74475
 Alpha  occ. eigenvalues --   -0.72608  -0.71473  -0.70374  -0.68204  -0.65790
 Alpha  occ. eigenvalues --   -0.61810  -0.61492  -0.57570  -0.52097  -0.51298
 Alpha  occ. eigenvalues --   -0.50293  -0.48655  -0.47106  -0.46634  -0.45617
 Alpha  occ. eigenvalues --   -0.43560  -0.42100  -0.41553  -0.41410  -0.40838
 Alpha  occ. eigenvalues --   -0.40377  -0.39730  -0.39513  -0.39317  -0.38541
 Alpha  occ. eigenvalues --   -0.38218  -0.37730  -0.36329  -0.34239  -0.33274
 Alpha  occ. eigenvalues --   -0.31816  -0.31155  -0.29965  -0.28813  -0.24907
 Alpha  occ. eigenvalues --   -0.24158  -0.20517
 Alpha virt. eigenvalues --   -0.05010  -0.02065  -0.00339  -0.00005   0.00577
 Alpha virt. eigenvalues --    0.01448   0.01972   0.02324   0.02428   0.03409
 Alpha virt. eigenvalues --    0.03636   0.04356   0.04540   0.04930   0.05699

 Mulliken charges:
               1
     1  C   -0.767606
     2  C   -0.054003
     3  C    0.203150
     4  C    0.489652
     5  C   -0.012209
     6  C    0.103682
     7  H    0.120009
     8  C   -0.289461
     9  C   -0.235062
    10  H    0.123301
    11  C   -0.541511
    12  C   -0.157956
    13  H    0.116196
    14  H    0.121930
    15  H    0.115727
    16  Si   0.941235
    17  H   -0.150813
    18  C   -0.853516
    19  H    0.168971
    20  H    0.163942
    21  H    0.170715
    22  C   -0.802758
    23  H    0.165925
    24  H    0.171367
    25  H    0.162595
    26  H    0.140398
    27  N    0.146526
    28  C   -0.330861
    29  H    0.134175
    30  H    0.140234
    31  H    0.153539
    32  C   -0.268513
    33  H    0.140789
    34  H    0.122925
    35  H    0.147287
 Sum of Mulliken charges =   0.00000

 Dipole moment (field-independent basis, Debye):
    X=             -1.0491    Y=              0.3002    Z=              0.0785  Tot=              1.0940
 Quadrupole moment (field-independent basis, Debye-Ang):
   XX=            -93.7268   YY=           -100.5963   ZZ=           -110.8438
   XY=              1.0800   XZ=              1.3694   YZ=              0.2284

  Exact polarizability: 270.483   7.978 216.182  -0.490   7.842 134.563
 Approx polarizability: 367.399  17.338 375.004  -4.683  27.061 210.554

 ESP charges:
               1
     1  C   -0.156307
     2  C   -0.011461
     3  C   -0.084975
     4  C    0.293436
     5  C   -0.353373
     6  C   -0.004439
     7  H    0.095768
     8  C    0.246207
     9  C   -0.327491
    10  H    0.071195
    11  C   -0.084025
    12  C   -0.159079
    13  H    0.170300
    14  H    0.096634
    15  H    0.108150
    16  Si   0.723514
    17  H   -0.229458
    18  C   -0.336234
    19  H    0.048528
    20  H    0.070388
    21  H    0.046402
    22  C   -0.369562
    23  H    0.074285
    24  H    0.060187
    25  H    0.078014
    26  H    0.044113
    27  N   -0.349069
    28  C    0.193524
    29  H   -0.040645
    30  H    0.023776
    31  H   -0.022946
    32  C   -0.105190
    33  H    0.077275
    34  H    0.057634
    35  H    0.054923
 Sum of ESP charges =   0.00000

 Summary of Natural Population Analysis:

                                       Natural Population
                Natural  -----------------------------------------------
    Atom  No    Charge         Core      Valence    Rydberg      Total
 -----------------------------------------------------------------------
      C    1   -0.20569      1.99914     4.18794    0.01861     6.20569
      C    2   -0.21065      1.99919     4.18252    0.02893     6.21065
      C    3    0.04630      1.99891     3.93294    0.02186     5.95370
      C    4   -0.07412      1.99910     4.04723    0.02779     6.07412
      C    5   -0.43064      1.99901     4.40414    0.02749     6.43064
      C    6   -0.18907      1.99910     4.17046    0.01950     6.18907
      H    7    0.20428      0.00000     0.79395    0.00176     0.79572
      C    8    0.16956      1.99900     3.80117    0.03028     5.83044
      C    9   -0.20396      1.99908     4.18940    0.01549     6.20396
      H   10    0.20095      0.00000     0.79734    0.00170     0.79905
      C   11   -0.18590      1.99917     4.16766    0.01908     6.18590
      C   12   -0.24907      1.99904     4.23396    0.01607     6.24907
      H   13    0.20626      0.00000     0.79184    0.00190     0.79374
      H   14    0.20484      0.00000     0.79361    0.00155     0.79516
      H   15    0.20918      0.00000     0.78895    0.00186     0.79082
     Si   16    1.35791      9.99843     2.61296    0.03070    12.64209
      H   17   -0.18238      0.00000     1.17855    0.00382     1.18238
      C   18   -1.06190      1.99935     5.05243    0.01011     7.06190
      H   19    0.23089      0.00000     0.76795    0.00116     0.76911
      H   20    0.22602      0.00000     0.77304    0.00094     0.77398
      H   21    0.22857      0.00000     0.77030    0.00113     0.77143
      C   22   -1.06710      1.99937     5.05833    0.00940     7.06710
      H   23    0.23150      0.00000     0.76761    0.00088     0.76850
      H   24    0.23202      0.00000     0.76695    0.00103     0.76798
      H   25    0.22550      0.00000     0.77332    0.00117     0.77450
      H   26    0.21519      0.00000     0.78076    0.00406     0.78481
      N   27   -0.54262      1.99937     5.52131    0.02193     7.54262
      C   28   -0.35106      1.99932     4.33892    0.01282     6.35106
      H   29    0.17067      0.00000     0.82628    0.00305     0.82933
      H   30    0.18900      0.00000     0.80945    0.00155     0.81100
      H   31    0.20494      0.00000     0.79360    0.00145     0.79506
      C   32   -0.35681      1.99935     4.34365    0.01381     6.35681
      H   33    0.19492      0.00000     0.80342    0.00167     0.80508
      H   34    0.16461      0.00000     0.83229    0.00310     0.83539
      H   35    0.20291      0.00000     0.79563    0.00146     0.79709
 =======================================================================
   * Total *    0.00508     39.98592    83.64987    0.35913   123.99492

                      1                      2                      3
                      A                      A                      A
 Frequencies --     38.5026                51.3836                82.0350
 Red. masses --      3.5025                 3.1339                 2.9535
 Frc consts  --      0.0031                 0.0049                 0.0117
 IR Inten    --      0.3146                 0.0659                 1.2432

                      4                      5                      6
                      A                      A                      A
 Frequencies --    110.6139               117.6654               150.4048
 Red. masses --      3.0201                 3.0744                 1.1010
 Frc consts  --      0.0218                 0.0251                 0.0147
 IR Inten    --      0.6018                 0.0256                 0.1345

                      7                      8                      9
                      A                      A                      A
 Frequencies --    165.3823               175.3086               181.4293
 Red. masses --      3.1280                 2.9064                 1.0377
 Frc consts  --      0.0504                 0.0526                 0.0201
 IR Inten    --      3.2343                 0.3507                 0.0895

                     10                     11                     12
                      A                      A                      A
 Frequencies --    191.3021               198.7076               240.5837
 Red. masses --      2.7937                 2.5772                 1.3213
 Frc consts  --      0.0602                 0.0600                 0.0451
 IR Inten    --      0.1999                 0.7606                 1.6691

                     13                     14                     15
                      A                      A                      A
 Frequencies --    246.1539               261.3040               282.8080
 Red. masses --      3.3830                 3.3333                 1.0901
 Frc consts  --      0.1208                 0.1341                 0.0514
 IR Inten    --      3.9043                 3.4587                 0.3936

                     16                     17                     18
                      A                      A                      A
 Frequencies --    320.3998               346.5686               374.5409
 Red. masses --      3.0188                 3.6144                 4.6862
 Frc consts  --      0.1826                 0.2558                 0.3873
 IR Inten    --      1.0127                 5.4208                12.2937

                     19                     20                     21
                      A                      A                      A
 Frequencies --    387.0736               473.0258               492.5572
 Red. masses --      3.0378                 3.2801                 4.4754
 Frc consts  --      0.2682                 0.4324                 0.6397
 IR Inten    --      3.1098                 1.8829                 2.6265

                     22                     23                     24
                      A                      A                      A
 Frequencies --    506.5001               509.8515               549.3104
 Red. masses --      4.2563                 4.1941                 5.6570
 Frc consts  --      0.6433                 0.6424                 1.0057
 IR Inten    --      1.7954                 3.5329                 0.5895

                     25                     26                     27
                      A                      A                      A
 Frequencies --    598.7594               606.5524               640.3213
 Red. masses --      3.2968                 4.9082                 1.0916
 Frc consts  --      0.6964                 1.0639                 0.2637
 IR Inten    --      1.9264                 4.3480                 9.6047

                     28                     29                     30
                      A                      A                      A
 Frequencies --    650.3535               683.8608               697.7901
 Red. masses --      3.5179                 3.0434                 2.4741
 Frc consts  --      0.8767                 0.8386                 0.7098
 IR Inten    --     14.9401                13.6010                 9.7739

                     31                     32                     33
                      A                      A                      A
 Frequencies --    745.5149               749.2947               773.5619
 Red. masses --      1.4204                 1.3821                 2.9815
 Frc consts  --      0.4651                 0.4572                 1.0512
 IR Inten    --     32.2183                 9.4163                 9.0010

                     34                     35                     36
                      A                      A                      A
 Frequencies --    784.8160               803.9355               807.5601
 Red. masses --      2.0006                 1.3048                 4.9249
 Frc consts  --      0.7260                 0.4969                 1.8923
 IR Inten    --     24.0955                86.7863                 0.6373

                     37                     38                     39
                      A                      A                      A
 Frequencies --    840.4213               848.0033               870.5256
 Red. masses --      3.7364                 4.3874                 1.4851
 Frc consts  --      1.5549                 1.8589                 0.6631
 IR Inten    --      0.5955                 2.9792                67.1456

                     40                     41                     42
                      A                      A                      A
 Frequencies --    897.9473               905.2596               913.9731
 Red. masses --      1.4389                 1.3890                 1.2402
 Frc consts  --      0.6836                 0.6706                 0.6104
 IR Inten    --      8.4495               251.1036               104.6016

                     43                     44                     45
                      A                      A                      A
 Frequencies --    941.5546               962.4989               979.2477
 Red. masses --      1.3843                 3.3883                 1.3110
 Frc consts  --      0.7231                 1.8494                 0.7407
 IR Inten    --      1.9233                 9.4251                 1.2089

                     46                     47                     48
                      A                      A                      A
 Frequencies --   1002.9491              1066.3207              1072.7301
 Red. masses --      1.3114                 1.7618                 3.0197
 Frc consts  --      0.7772                 1.1803                 2.0474
 IR Inten    --      0.5455                13.6989                28.3909

                     49                     50                     51
                      A                      A                      A
 Frequencies --   1089.5690              1109.7594              1121.1002
 Red. masses --      2.3388                 1.6236                 1.6133
 Frc consts  --      1.6359                 1.1781                 1.1947
 IR Inten    --     59.0808                34.7681                14.3976

                     52                     53                     54
                      A                      A                      A
 Frequencies --   1168.2706              1176.8568              1192.5640
 Red. masses --      1.4518                 1.4022                 1.3214
 Frc consts  --      1.1675                 1.1442                 1.1072
 IR Inten    --     14.7519                 6.5817                 3.2411

                     55                     56                     57
                      A                      A                      A
 Frequencies --   1209.2549              1223.1790              1239.4900
 Red. masses --      2.4040                 1.8879                 1.7313
 Frc consts  --      2.0712                 1.6642                 1.5672
 IR Inten    --     18.6647                 4.4333                 7.6465

                     58                     59                     60
                      A                      A                      A
 Frequencies --   1254.0886              1295.6337              1302.8762
 Red. masses --      2.4481                 1.2473                 1.2291
 Frc consts  --      2.2684                 1.2336                 1.2292
 IR Inten    --      5.5283                34.6274                21.1244

                     61                     62                     63
                      A                      A                      A
 Frequencies --   1334.4313              1341.1971              1373.2175
 Red. masses --      3.0029                 2.6764                 8.0079
 Frc consts  --      3.1505                 2.8365                 8.8971
 IR Inten    --     34.0390                17.9142                 2.0694

                     64                     65                     66
                      A                      A                      A
 Frequencies --   1424.1252              1430.5331              1443.4833
 Red. masses --      2.3635                 2.0842                 1.1519
 Frc consts  --      2.8242                 2.5130                 1.4141
 IR Inten    --     20.9652                40.8914                 0.8634

                     67                     68                     69
                      A                      A                      A
 Frequencies --   1459.9408              1461.1852              1469.1264
 Red. masses --      1.0526                 1.0563                 1.1182
 Frc consts  --      1.3219                 1.3288                 1.4219
 IR Inten    --      2.3561                 0.5603                 4.0255

                     70                     71                     72
                      A                      A                      A
 Frequencies --   1470.7621              1473.6465              1483.0492
 Red. masses --      1.1767                 1.0487                 1.0536
 Frc consts  --      1.4997                 1.3419                 1.3654
 IR Inten    --      2.6326                 5.9798                10.3570

                     73                     74                     75
                      A                      A                      A
 Frequencies --   1490.5988              1497.7389              1505.6137
 Red. masses --      1.7700                 1.1319                 1.0609
 Frc consts  --      2.3171                 1.4960                 1.4169
 IR Inten    --     32.1211                10.3037                 8.7605

                     76                     77                     78
                      A                      A                      A
 Frequencies --   1523.4975              1535.6879              1606.0350
 Red. masses --      1.0899                 3.4961                 6.4443
 Frc consts  --      1.4905                 4.8578                 9.7935
 IR Inten    --     13.2806                13.4558                37.2997

                     79                     80                     81
                      A                      A                      A
 Frequencies --   1620.7493              1643.2557              2185.0830
 Red. masses --      4.8005                 5.7195                 1.0402
 Frc consts  --      7.4296                 9.0995                 2.9261
 IR Inten    --     25.6456                 6.9584               128.4830

                     82                     83                     84
                      A                      A                      A
 Frequencies --   2933.0970              2946.5249              3023.6539
 Red. masses --      1.0605                 1.0601                 1.0351
 Frc consts  --      5.3755                 5.4227                 5.5759
 IR Inten    --     79.2684               132.4612                 9.6643

                     85                     86                     87
                      A                      A                      A
 Frequencies --   3025.0416              3055.4671              3058.0803
 Red. masses --      1.0348                 1.0742                 1.0772
 Frc consts  --      5.5791                 5.9090                 5.9352
 IR Inten    --      8.6140                23.6475                57.4785

                     88                     89                     90
                      A                      A                      A
 Frequencies --   3090.4614              3092.6601              3099.9634
 Red. masses --      1.1003                 1.0997                 1.1006
 Frc consts  --      6.1918                 6.1970                 6.2317
 IR Inten    --      0.9992                26.6181                11.2913

                     91                     92                     93
                      A                      A                      A
 Frequencies --   3103.0309              3109.5905              3131.1126
 Red. masses --      1.0994                 1.1014                 1.0971
 Frc consts  --      6.2371                 6.2749                 6.3373
 IR Inten    --     12.2828                19.4081                14.4464

                     94                     95                     96
                      A                      A                      A
 Frequencies --   3156.4740              3165.2847              3173.2109
 Red. masses --      1.0864                 1.0869                 1.0921
 Frc consts  --      6.3775                 6.4158                 6.4791
 IR Inten    --      7.1462                 8.6120                20.2497

                     97                     98                     99
                      A                      A                      A
 Frequencies --   3189.8853              3195.9080              3204.3967
 Red. masses --      1.0900                 1.0945                 1.0924
 Frc consts  --      6.5350                 6.5865                 6.6089
 IR Inten    --     14.8012                11.3225                 7.9638

 - Thermochemistry -
 -------------------
 Temperature   298.150 Kelvin.  Pressure   1.00000 Atm.
 Atom     1 has atomic number  6 and mass  12.00000

 Molecular mass:   229.12868 amu.
 Principal axes and moments of inertia in atomic units:
                           1         2         3
     Eigenvalues --  1776.333306534.600277779.49921
           X            0.99999  -0.00241   0.00285
           Y            0.00244   0.99991  -0.01325
           Z           -0.00282   0.01325   0.99991
 This molecule is an asymmetric top.
 Rotational symmetry number  1.
 Warning -- assumption of classical behavior for rotation
           may cause significant error
 Rotational temperatures (Kelvin)      0.04876     0.01325     0.01113
 Rotational constants (GHZ):           1.01599     0.27618     0.23199
 Zero-point vibrational energy     766845.8 (Joules/Mol)
                                  183.28055 (Kcal/Mol)
 Warning -- explicit consideration of  26 degrees of freedom as
           vibrations may cause significant error
 Vibrational temperatures:     55.40    73.93   118.03   159.15   169.29
          (Kelvin)            216.40   237.95   252.23   261.04   275.24
                              285.90   346.15   354.16   375.96   406.90
                              460.98   498.63   538.88   556.91   680.58
                              708.68   728.74   733.56   790.33   861.48
                              872.69   921.28   935.71   983.92  1003.96
                             1072.63  1078.07  1112.98  1129.17  1156.68
                             1161.90  1209.18  1220.09  1252.49  1291.94
                             1302.47  1315.00  1354.69  1384.82  1408.92
                             1443.02  1534.20  1543.42  1567.64  1596.69
                             1613.01  1680.88  1693.23  1715.83  1739.85
                             1759.88  1783.35  1804.35  1864.13  1874.55
                             1919.95  1929.68  1975.75  2049.00  2058.22
                             2076.85  2100.53  2102.32  2113.74  2116.10
                             2120.25  2133.77  2144.64  2154.91  2166.24
                             2191.97  2209.51  2310.72  2331.89  2364.28
                             3143.84  4220.07  4239.39  4350.36  4352.35
                             4396.13  4399.89  4446.48  4449.64  4460.15
                             4464.56  4474.00  4504.97  4541.46  4554.13
                             4565.54  4589.53  4598.19  4610.41

 Zero-point correction=                           0.292076 (Hartree/Particle)
 Thermal correction to Energy=                    0.309028
 Thermal correction to Enthalpy=                  0.309972
 Thermal correction to Gibbs Free Energy=         0.248191
 Sum of electronic and zero-point Energies=           -889.090337
 Sum of electronic and thermal Energies=              -889.073385
 Sum of electronic and thermal Enthalpies=            -889.072441
 Sum of electronic and thermal Free Energies=         -889.134222

                     E (Thermal)             CV                S
                      KCal/Mol        Cal/Mol-Kelvin    Cal/Mol-Kelvin
 Total                  193.918             65.779            130.029
 Electronic               0.000              0.000              0.000
 Translational            0.889              2.981             42.189
 Rotational               0.889              2.981             32.868
 Vibrational            192.140             59.817             54.971
 Vibration     1          0.594              1.981              5.335
 Vibration     2          0.596              1.977              4.763
 Vibration     3          0.600              1.961              3.842
 Vibration     4          0.606              1.941              3.258
 Vibration     5          0.608              1.935              3.138
 Vibration     6          0.618              1.902              2.667
 Vibration     7          0.624              1.885              2.487
 Vibration     8          0.627              1.873              2.378
 Vibration     9          0.630              1.865              2.314
 Vibration    10          0.634              1.852              2.215
 Vibration    11          0.637              1.842              2.145
 Vibration    12          0.658              1.778              1.799
 Vibration    13          0.661              1.769              1.758
 Vibration    14          0.669              1.744              1.653
 Vibration    15          0.682              1.706              1.517
 Vibration    16          0.706              1.635              1.308
 Vibration    17          0.725              1.582              1.182
 Vibration    18          0.746              1.524              1.061
 Vibration    19          0.755              1.498              1.011
 Vibration    20          0.830              1.310              0.729
 Vibration    21          0.848              1.267              0.677
 Vibration    22          0.862              1.236              0.642
 Vibration    23          0.865              1.228              0.634
 Vibration    24          0.905              1.141              0.546
 Vibration    25          0.957              1.034              0.452
 Vibration    26          0.965              1.018              0.439

 Normal termination of Gaussian 09 at Wed Oct 13 17:34:33 2021.
