 Gaussian 09, Revision D.01,
 Gaussian 09:  ES64L-G09RevD.01 24-Apr-2013

 ----------------------------------------------------------------------
 # opt=rcfc geom=allcheck guess=read freq=noraman b3lyp/6-311+g(d,p) po
 p=(npa,hirshfeld,chelpg,mbs)
 ----------------------------------------------------------------------

 Structure from the checkpoint file:  "BocProc_Smith1.chk"
 -------------------
 Title Card Required
 -------------------
 Charge =  0 Multiplicity = 1

 SCF Done:  E(RB3LYP) =  -556.157968558     A.U. after    1 cycles
 SCF Done:  E(RB3LYP) =  -556.157968576     A.U. after    7 cycles
 Optimization completed.
    -- Stationary point found.
 Normal termination of Gaussian 09 at Tue Jan 10 09:22:32 2023.

 ----------------------------------------------------------------------
 #N Geom=AllCheck Guess=TCheck SCRF=Check GenChk RB3LYP/6-311+G(d,p) Fr
 eq
 ----------------------------------------------------------------------

 Structure from the checkpoint file:  "BocProc_Smith1.chk"
 -------------------
 Title Card Required
 -------------------
 Charge =  0 Multiplicity = 1

                         Standard orientation:
 ---------------------------------------------------------------------
 Center     Atomic      Atomic             Coordinates (Angstroms)
 Number     Number       Type             X           Y           Z
 ---------------------------------------------------------------------
      1          6           0        1.903817   -1.198285    0.000009
      2          6           0        3.269305   -1.186145    0.000005
      3          6           0        3.695393    0.184306   -0.000011
      4          6           0        2.576855    0.966990   -0.000014
      5          7           0        1.467780    0.126032   -0.000002
      6          1           0        1.194828   -2.006416    0.000024
      7          1           0        3.904157   -2.058702    0.000013
      8          1           0        4.712936    0.542887   -0.000020
      9          1           0        2.440187    2.034330   -0.000025
     10          6           0        0.145084    0.600068    0.000002
     11          8           0       -0.122515    1.776898    0.000026
     12          8           0       -0.711244   -0.424955   -0.000026
     13          6           0       -2.182415   -0.207884   -0.000004
     14          6           0       -2.595699    0.532581    1.272817
     15          1           0       -2.210576    1.551051    1.285716
     16          1           0       -3.686940    0.572391    1.325715
     17          1           0       -2.233259    0.003376    2.157655
     18          6           0       -2.595726    0.532722   -1.272734
     19          1           0       -3.686969    0.572471   -1.325641
     20          1           0       -2.210661    1.551216   -1.285494
     21          1           0       -2.233241    0.003654   -2.157635
     22          6           0       -2.719960   -1.638277   -0.000074
     23          1           0       -3.812343   -1.623215   -0.000032
     24          1           0       -2.381253   -2.178577   -0.886754
     25          1           0       -2.381188   -2.178687    0.886514
 ---------------------------------------------------------------------

 SCF Done:  E(RB3LYP) =  -556.157968576     A.U. after    1 cycles

 The electronic state is 1-A.
 Alpha  occ. eigenvalues --  -19.17641 -19.11758 -14.37953 -10.34321 -10.26042
 Alpha  occ. eigenvalues --  -10.20100 -10.19916 -10.17565 -10.17085 -10.17084
 Alpha  occ. eigenvalues --  -10.16886 -10.16794  -1.12717  -1.03992  -0.99071
 Alpha  occ. eigenvalues --   -0.83663  -0.79773  -0.73483  -0.70972  -0.70812
 Alpha  occ. eigenvalues --   -0.66703  -0.60720  -0.57470  -0.55480  -0.52757
 Alpha  occ. eigenvalues --   -0.49701  -0.48664  -0.47554  -0.45960  -0.44917
 Alpha  occ. eigenvalues --   -0.43835  -0.42295  -0.41562  -0.41080  -0.40153
 Alpha  occ. eigenvalues --   -0.38990  -0.38890  -0.38234  -0.37292  -0.36442
 Alpha  occ. eigenvalues --   -0.35396  -0.31907  -0.29781  -0.26321  -0.22973
 Alpha virt. eigenvalues --   -0.02966  -0.00356   0.01551   0.02253   0.02451
 Alpha virt. eigenvalues --    0.02955   0.03602   0.04224   0.04785   0.05024
 Alpha virt. eigenvalues --    0.05234   0.05614   0.05885   0.06261   0.06952

 Mulliken charges:
               1
     1  C   -0.101698
     2  C   -0.209700
     3  C   -0.248558
     4  C   -0.044286
     5  N   -0.003928
     6  H    0.146464
     7  H    0.124772
     8  H    0.124986
     9  H    0.150993
    10  C    0.241671
    11  O   -0.274291
    12  O    0.032935
    13  C   -0.245166
    14  C   -0.331521
    15  H    0.183888
    16  H    0.143411
    17  H    0.151259
    18  C   -0.331545
    19  H    0.143410
    20  H    0.183890
    21  H    0.151259
    22  C   -0.461335
    23  H    0.151319
    24  H    0.160885
    25  H    0.160885
 Sum of Mulliken charges =   0.00000

 Dipole moment (field-independent basis, Debye):
    X=             -1.9365    Y=             -1.6596    Z=              0.0000  Tot=              2.5504
 Quadrupole moment (field-independent basis, Debye-Ang):
   XX=            -64.0244   YY=            -74.4222   ZZ=            -74.7483
   XY=              1.2719   XZ=             -0.0001   YZ=             -0.0002

  Exact polarizability: 154.442  -3.613 117.626   0.000   0.000  88.524
 Approx polarizability: 201.142  -9.006 188.007   0.000   0.000 126.012

 ESP charges:
               1
     1  C   -0.172142
     2  C   -0.104589
     3  C   -0.117943
     4  C   -0.162397
     5  N   -0.010745
     6  H    0.138773
     7  H    0.100654
     8  H    0.107016
     9  H    0.136195
    10  C    0.764589
    11  O   -0.551244
    12  O   -0.556232
    13  C    0.784821
    14  C   -0.328909
    15  H    0.090013
    16  H    0.059056
    17  H    0.063685
    18  C   -0.328886
    19  H    0.059049
    20  H    0.090009
    21  H    0.063680
    22  C   -0.393662
    23  H    0.078181
    24  H    0.095512
    25  H    0.095516
 Sum of ESP charges =   0.00000

 Summary of Natural Population Analysis:

                                       Natural Population
                Natural  -----------------------------------------------
    Atom  No    Charge         Core      Valence    Rydberg      Total
 -----------------------------------------------------------------------
      C    1   -0.02901      1.99917     4.00907    0.02078     6.02901
      C    2   -0.27188      1.99917     4.25552    0.01719     6.27188
      C    3   -0.27376      1.99917     4.25764    0.01695     6.27376
      C    4   -0.01935      1.99917     3.99957    0.02061     6.01935
      N    5   -0.45806      1.99923     5.44093    0.01790     7.45806
      H    6    0.22352      0.00000     0.77488    0.00161     0.77648
      H    7    0.21733      0.00000     0.78131    0.00137     0.78267
      H    8    0.21802      0.00000     0.78063    0.00135     0.78198
      H    9    0.22880      0.00000     0.76952    0.00168     0.77120
      C   10    0.96073      1.99939     2.99038    0.04950     5.03927
      O   11   -0.61709      1.99974     6.60747    0.00989     8.61709
      O   12   -0.58662      1.99969     6.56842    0.01852     8.58662
      C   13    0.27805      1.99910     3.70223    0.02062     5.72195
      C   14   -0.60705      1.99923     4.59649    0.01133     6.60705
      H   15    0.23108      0.00000     0.76748    0.00144     0.76892
      H   16    0.20911      0.00000     0.78975    0.00113     0.79089
      H   17    0.20866      0.00000     0.79005    0.00129     0.79134
      C   18   -0.60705      1.99923     4.59649    0.01133     6.60705
      H   19    0.20911      0.00000     0.78975    0.00113     0.79089
      H   20    0.23108      0.00000     0.76748    0.00144     0.76892
      H   21    0.20866      0.00000     0.79005    0.00129     0.79134
      C   22   -0.58372      1.99924     4.57228    0.01220     6.58372
      H   23    0.20785      0.00000     0.79109    0.00105     0.79215
      H   24    0.21080      0.00000     0.78787    0.00133     0.78920
      H   25    0.21080      0.00000     0.78787    0.00133     0.78920
 =======================================================================
   * Total *    0.00000     23.99151    65.76420    0.24429    90.00000

                      1                      2                      3
                      A                      A                      A
 Frequencies --     47.0914                65.0491               119.2505
 Red. masses --      3.6438                 3.3237                 3.9807
 Frc consts  --      0.0048                 0.0083                 0.0334
 IR Inten    --      1.0467                 0.3427                 0.9261

                      4                      5                      6
                      A                      A                      A
 Frequencies --    119.4131               165.7986               199.8485
 Red. masses --      3.8558                 5.5700                 1.1108
 Frc consts  --      0.0324                 0.0902                 0.0261
 IR Inten    --      0.3618                 0.2433                 0.0600

                      7                      8                      9
                      A                      A                      A
 Frequencies --    233.0629               242.2900               266.9846
 Red. masses --      3.1883                 1.0976                 1.0663
 Frc consts  --      0.1020                 0.0380                 0.0448
 IR Inten    --      6.2122                 0.5364                 0.0236

                     10                     11                     12
                      A                      A                      A
 Frequencies --    308.0906               336.9504               348.6110
 Red. masses --      2.9551                 4.1588                 2.5141
 Frc consts  --      0.1653                 0.2782                 0.1800
 IR Inten    --      2.2033                 7.3794                 1.2002

                     13                     14                     15
                      A                      A                      A
 Frequencies --    413.4648               457.4215               486.0715
 Red. masses --      2.9313                 2.9360                 2.6556
 Frc consts  --      0.2952                 0.3619                 0.3697
 IR Inten    --      2.0046                 3.0444                 6.9069

                     16                     17                     18
                      A                      A                      A
 Frequencies --    539.2340               602.0333               617.9915
 Red. masses --      5.6931                 3.5607                 3.1093
 Frc consts  --      0.9753                 0.7604                 0.6996
 IR Inten    --      3.2616                 8.1478                 0.0234

                     19                     20                     21
                      A                      A                      A
 Frequencies --    714.2788               749.8867               754.6386
 Red. masses --      1.2773                 1.2214                 4.6447
 Frc consts  --      0.3839                 0.4047                 1.5584
 IR Inten    --      2.0461               110.0027                 0.7144

                     22                     23                     24
                      A                      A                      A
 Frequencies --    780.6971               836.2726               850.1072
 Red. masses --     10.5778                 5.9701                 4.0740
 Frc consts  --      3.7985                 2.4599                 1.7347
 IR Inten    --     24.5328                 6.2482                42.9195

                     25                     26                     27
                      A                      A                      A
 Frequencies --    874.1819               883.4080               902.9118
 Red. masses --      1.2979                 5.7526                 1.3278
 Frc consts  --      0.5844                 2.6451                 0.6378
 IR Inten    --      0.0897                 1.6156                 0.0343

                     28                     29                     30
                      A                      A                      A
 Frequencies --    925.6584               926.2741               964.7598
 Red. masses --      1.6368                 1.6380                 2.8079
 Frc consts  --      0.8263                 0.8280                 1.5398
 IR Inten    --      0.0492                 0.6378               105.8378

                     31                     32                     33
                      A                      A                      A
 Frequencies --    970.3353              1049.0869              1050.8969
 Red. masses --      1.2016                 1.8493                 1.4099
 Frc consts  --      0.6666                 1.1992                 0.9174
 IR Inten    --      0.0780                17.3304                 0.6323

                     34                     35                     36
                      A                      A                      A
 Frequencies --   1057.5974              1093.0887              1097.9275
 Red. masses --      1.5801                 1.2233                 1.2775
 Frc consts  --      1.0413                 0.8612                 0.9073
 IR Inten    --     15.9898                39.8055                52.6250

                     37                     38                     39
                      A                      A                      A
 Frequencies --   1178.1622              1216.3226              1268.0853
 Red. masses --      3.0830                 3.3885                 2.7496
 Frc consts  --      2.5214                 2.9536                 2.6050
 IR Inten    --    540.1399                15.1912                15.8025

                     40                     41                     42
                      A                      A                      A
 Frequencies --   1277.2117              1281.2991              1334.5522
 Red. masses --      2.0606                 1.6561                 5.1905
 Frc consts  --      1.9805                 1.6019                 5.4467
 IR Inten    --     28.9755                13.9479               199.8258

                     43                     44                     45
                      A                      A                      A
 Frequencies --   1357.3785              1401.2561              1401.3275
 Red. masses --      5.7088                 1.2700                 1.2839
 Frc consts  --      6.1973                 1.4693                 1.4854
 IR Inten    --    498.1120                22.2231                31.1220

                     46                     47                     48
                      A                      A                      A
 Frequencies --   1428.3639              1433.5410              1469.8782
 Red. masses --      1.2333                 4.0916                 1.0450
 Frc consts  --      1.4825                 4.9541                 1.3302
 IR Inten    --     18.5153                55.0440                 0.2532

                     49                     50                     51
                      A                      A                      A
 Frequencies --   1489.9481              1491.3042              1495.5554
 Red. masses --      1.0463                 1.0509                 1.3784
 Frc consts  --      1.3685                 1.3771                 1.8165
 IR Inten    --      0.5732                 1.1091                64.8948

                     52                     53                     54
                      A                      A                      A
 Frequencies --   1501.5729              1504.2837              1525.2058
 Red. masses --      2.0214                 1.0534                 1.0554
 Frc consts  --      2.6853                 1.4045                 1.4466
 IR Inten    --     48.0892                 2.7101                23.2399

                     55                     56                     57
                      A                      A                      A
 Frequencies --   1581.0134              1784.3429              3035.7015
 Red. masses --      4.5493                12.1058                 1.0350
 Frc consts  --      6.6998                22.7091                 5.6196
 IR Inten    --      1.3804               359.4125                 8.4528

                     58                     59                     60
                      A                      A                      A
 Frequencies --   3037.3103              3044.4906              3097.7148
 Red. masses --      1.0372                 1.0375                 1.1020
 Frc consts  --      5.6375                 5.6661                 6.2305
 IR Inten    --     21.1967                18.0845                 5.5757

                     61                     62                     63
                      A                      A                      A
 Frequencies --   3099.3582              3110.2939              3111.6825
 Red. masses --      1.1019                 1.1029                 1.1017
 Frc consts  --      6.2367                 6.2862                 6.2852
 IR Inten    --     12.3278                27.4559                45.0120

                     64                     65                     66
                      A                      A                      A
 Frequencies --   3136.7644              3140.5451              3232.8612
 Red. masses --      1.1005                 1.0997                 1.0910
 Frc consts  --      6.3799                 6.3905                 6.7184
 IR Inten    --      0.5926                11.9533                 5.4300

                     67                     68                     69
                      A                      A                      A
 Frequencies --   3245.8129              3284.8196              3294.0531
 Red. masses --      1.0971                 1.0998                 1.1009
 Frc consts  --      6.8099                 6.9921                 7.0385
 IR Inten    --      1.5246                 3.4739                 2.7940

 - Thermochemistry -
 -------------------
 Temperature   298.150 Kelvin.  Pressure   1.00000 Atm.
 Atom     1 has atomic number  6 and mass  12.00000

 Molecular mass:   167.09463 amu.
 Principal axes and moments of inertia in atomic units:
                           1         2         3
     Eigenvalues --   822.737943342.742603760.37176
           X            0.99999   0.00393   0.00000
           Y           -0.00393   0.99999   0.00000
           Z            0.00000   0.00000   1.00000
 This molecule is an asymmetric top.
 Rotational symmetry number  1.
 Warning -- assumption of classical behavior for rotation
           may cause significant error
 Rotational temperatures (Kelvin)      0.10528     0.02591     0.02303
 Rotational constants (GHZ):           2.19358     0.53990     0.47994
 Zero-point vibrational energy     546350.5 (Joules/Mol)
                                  130.58091 (Kcal/Mol)
 Warning -- explicit consideration of  18 degrees of freedom as
           vibrations may cause significant error
 Vibrational temperatures:     67.75    93.59   171.57   171.81   238.55
          (Kelvin)            287.54   335.33   348.60   384.13   443.27
                              484.80   501.57   594.88   658.13   699.35
                              775.84   866.19   889.15  1027.69  1078.92
                             1085.76  1123.25  1203.21  1223.11  1257.75
                             1271.03  1299.09  1331.81  1332.70  1388.07
                             1396.09  1509.40  1512.00  1521.64  1572.71
                             1579.67  1695.11  1750.01  1824.49  1837.62
                             1843.50  1920.12  1952.96  2016.09  2016.20
                             2055.09  2062.54  2114.82  2143.70  2145.65
                             2151.77  2160.43  2164.33  2194.43  2274.72
                             2567.27  4367.69  4370.01  4380.34  4456.92
                             4459.28  4475.01  4477.01  4513.10  4518.54
                             4651.36  4669.99  4726.12  4739.40

 Zero-point correction=                           0.208094 (Hartree/Particle)
 Thermal correction to Energy=                    0.220221
 Thermal correction to Enthalpy=                  0.221166
 Thermal correction to Gibbs Free Energy=         0.169905
 Sum of electronic and zero-point Energies=           -555.949875
 Sum of electronic and thermal Energies=              -555.937747
 Sum of electronic and thermal Enthalpies=            -555.936803
 Sum of electronic and thermal Free Energies=         -555.988063

                     E (Thermal)             CV                S
                      KCal/Mol        Cal/Mol-Kelvin    Cal/Mol-Kelvin
 Total                  138.191             46.024            107.886
 Electronic               0.000              0.000              0.000
 Translational            0.889              2.981             41.248
 Rotational               0.889              2.981             30.715
 Vibrational            136.414             40.063             35.923
 Vibration     1          0.595              1.979              4.936
 Vibration     2          0.597              1.971              4.298
 Vibration     3          0.609              1.933              3.112
 Vibration     4          0.609              1.933              3.110
 Vibration     5          0.624              1.885              2.483
 Vibration     6          0.638              1.840              2.134
 Vibration     7          0.654              1.790              1.855
 Vibration     8          0.658              1.775              1.786
 Vibration     9          0.672              1.734              1.616
 Vibration    10          0.698              1.658              1.373
 Vibration    11          0.718              1.602              1.227
 Vibration    12          0.726              1.578              1.172
 Vibration    13          0.777              1.441              0.914
 Vibration    14          0.816              1.344              0.774
 Vibration    15          0.842              1.281              0.694
 Vibration    16          0.894              1.163              0.567
 Vibration    17          0.960              1.027              0.446
 Vibration    18          0.978              0.994              0.420

 Optimization completed.
    -- Stationary point found.
 Normal termination of Gaussian 09 at Tue Jan 10 09:26:22 2023.
