 Gaussian 09, Revision D.01,
 Gaussian 09:  ES64L-G09RevD.01 24-Apr-2013

 ----------------------------------------------------------------------
 # opt freq b3lyp/6-311+g(d,p) geom=connectivity pop=(hirshfeld,chelpg,
 mbs,npa)
 ----------------------------------------------------------------------

 -------------------
 Title Card Required
 -------------------
 Symbolic Z-matrix:
 Charge =  0 Multiplicity = 1

 SCF Done:  E(RB3LYP) =  -595.427890147     A.U. after   14 cycles
 SCF Done:  E(RB3LYP) =  -595.454537109     A.U. after   14 cycles
 SCF Done:  E(RB3LYP) =  -595.460349271     A.U. after   12 cycles
 SCF Done:  E(RB3LYP) =  -595.464043805     A.U. after   12 cycles
 SCF Done:  E(RB3LYP) =  -595.467830500     A.U. after   12 cycles
 SCF Done:  E(RB3LYP) =  -595.468106884     A.U. after   12 cycles
 SCF Done:  E(RB3LYP) =  -595.468773912     A.U. after   12 cycles
 SCF Done:  E(RB3LYP) =  -595.469001851     A.U. after   11 cycles
 SCF Done:  E(RB3LYP) =  -595.469629105     A.U. after   12 cycles
 SCF Done:  E(RB3LYP) =  -595.466012251     A.U. after   13 cycles
 SCF Done:  E(RB3LYP) =  -595.484497119     A.U. after   12 cycles
 SCF Done:  E(RB3LYP) =  -595.484795900     A.U. after   11 cycles
 SCF Done:  E(RB3LYP) =  -595.484919458     A.U. after   10 cycles
 SCF Done:  E(RB3LYP) =  -595.484930026     A.U. after   10 cycles
 SCF Done:  E(RB3LYP) =  -595.484938795     A.U. after    9 cycles
 SCF Done:  E(RB3LYP) =  -595.484941344     A.U. after    8 cycles
 SCF Done:  E(RB3LYP) =  -595.484941746     A.U. after    8 cycles
 SCF Done:  E(RB3LYP) =  -595.484941793     A.U. after    7 cycles
 SCF Done:  E(RB3LYP) =  -595.484941809     A.U. after    7 cycles
 Optimization completed.
    -- Stationary point found.
 Normal termination of Gaussian 09 at Mon Jan  9 17:33:11 2023.

 ----------------------------------------------------------------------
 #N Geom=AllCheck Guess=TCheck SCRF=Check GenChk RB3LYP/6-311+G(d,p) Fr
 eq
 ----------------------------------------------------------------------

 Structure from the checkpoint file:  "BocProc_Smith2.chk"
 -------------------
 Title Card Required
 -------------------
 Charge =  0 Multiplicity = 1

                         Standard orientation:
 ---------------------------------------------------------------------
 Center     Atomic      Atomic             Coordinates (Angstroms)
 Number     Number       Type             X           Y           Z
 ---------------------------------------------------------------------
      1          6           0        1.460699   -1.594685   -0.000014
      2          6           0        2.805269   -1.807349    0.000036
      3          6           0        3.447020   -0.526170    0.000042
      4          6           0        2.486421    0.448416   -0.000021
      5          7           0        1.241836   -0.211509   -0.000088
      6          1           0        0.628570   -2.274362   -0.000029
      7          1           0        3.288204   -2.772284    0.000055
      8          1           0        4.510230   -0.339218    0.000042
      9          6           0       -0.014452    0.414020    0.000021
     10          8           0       -0.162571    1.612658    0.000171
     11          8           0       -0.985602   -0.507856   -0.000066
     12          6           0       -2.420517   -0.123761   -0.000009
     13          6           0       -2.748468    0.658420    1.272984
     14          1           0       -2.254390    1.628637    1.283407
     15          1           0       -3.828916    0.816001    1.328704
     16          1           0       -2.443041    0.093357    2.157268
     17          6           0       -2.748591    0.658850   -1.272710
     18          1           0       -3.829092    0.816065   -1.328451
     19          1           0       -2.254822    1.629224   -1.282759
     20          1           0       -2.442912    0.094234   -2.157196
     21          6           0       -3.119422   -1.483027   -0.000235
     22          1           0       -4.202944   -1.342759   -0.000063
     23          1           0       -2.845705   -2.058656   -0.887185
     24          1           0       -2.845473   -2.059052    0.886384
     25          6           0        2.662329    1.931580   -0.000102
     26          1           0        2.209693    2.401166   -0.876508
     27          1           0        2.209459    2.401293    0.876123
     28          1           0        3.731947    2.150746    0.000035
 ---------------------------------------------------------------------

 SCF Done:  E(RB3LYP) =  -595.484941809     A.U. after    1 cycles

 The electronic state is 1-A.
 Alpha  occ. eigenvalues --  -19.17258 -19.11458 -14.37591 -10.34084 -10.25842
 Alpha  occ. eigenvalues --  -10.20743 -10.19459 -10.17411 -10.16936 -10.16936
 Alpha  occ. eigenvalues --  -10.16647 -10.16393 -10.15962  -1.12399  -1.03633
 Alpha  occ. eigenvalues --   -0.98527  -0.83476  -0.79528  -0.76547  -0.70805
 Alpha  occ. eigenvalues --   -0.70659  -0.67760  -0.66305  -0.60438  -0.57124
 Alpha  occ. eigenvalues --   -0.52672  -0.52063  -0.49518  -0.48424  -0.47124
 Alpha  occ. eigenvalues --   -0.45924  -0.44694  -0.43590  -0.42411  -0.42394
 Alpha  occ. eigenvalues --   -0.40653  -0.39981  -0.39949  -0.39201  -0.38261
 Alpha  occ. eigenvalues --   -0.37714  -0.37174  -0.36682  -0.36231  -0.35151
 Alpha  occ. eigenvalues --   -0.31621  -0.29258  -0.25989  -0.21806
 Alpha virt. eigenvalues --   -0.02374  -0.00297   0.01325   0.01915   0.02446
 Alpha virt. eigenvalues --    0.02755   0.03142   0.04368   0.04770   0.04905
 Alpha virt. eigenvalues --    0.04918   0.05535   0.05943   0.06148   0.06632

 Mulliken charges:
               1
     1  C    0.117179
     2  C   -0.425832
     3  C    0.019007
     4  C    0.129002
     5  N    0.031153
     6  H    0.144639
     7  H    0.121897
     8  H    0.113220
     9  C    0.134776
    10  O   -0.265490
    11  O    0.050548
    12  C   -0.251110
    13  C   -0.333378
    14  H    0.183933
    15  H    0.142850
    16  H    0.151536
    17  C   -0.333440
    18  H    0.142853
    19  H    0.183931
    20  H    0.151543
    21  C   -0.460256
    22  H    0.151555
    23  H    0.160707
    24  H    0.160711
    25  C   -0.670912
    26  H    0.156456
    27  H    0.156458
    28  H    0.136464
 Sum of Mulliken charges =   0.00000

 Dipole moment (field-independent basis, Debye):
    X=             -1.9071    Y=             -0.8769    Z=             -0.0002  Tot=              2.0991
 Quadrupole moment (field-independent basis, Debye-Ang):
   XX=            -69.8678   YY=            -80.4608   ZZ=            -81.0425
   XY=              2.0550   XZ=              0.0001   YZ=             -0.0008

  Exact polarizability: 163.703  -4.647 136.999   0.001   0.000  96.908
 Approx polarizability: 214.644 -11.295 211.761   0.002   0.001 140.925

 ESP charges:
               1
     1  C   -0.219347
     2  C   -0.074760
     3  C   -0.234156
     4  C    0.142065
     5  N   -0.089757
     6  H    0.150073
     7  H    0.099302
     8  H    0.124728
     9  C    0.771098
    10  O   -0.514700
    11  O   -0.537803
    12  C    0.730075
    13  C   -0.308255
    14  H    0.076360
    15  H    0.058954
    16  H    0.059735
    17  C   -0.308688
    18  H    0.058989
    19  H    0.076623
    20  H    0.059780
    21  C   -0.342567
    22  H    0.065045
    23  H    0.084696
    24  H    0.084637
    25  C   -0.271668
    26  H    0.086198
    27  H    0.086203
    28  H    0.087142
 Sum of ESP charges =   0.00000

 Summary of Natural Population Analysis:

                                       Natural Population
                Natural  -----------------------------------------------
    Atom  No    Charge         Core      Valence    Rydberg      Total
 -----------------------------------------------------------------------
      C    1   -0.03371      1.99916     4.01433    0.02022     6.03371
      C    2   -0.26479      1.99916     4.24856    0.01707     6.26479
      C    3   -0.27892      1.99901     4.26307    0.01684     6.27892
      C    4    0.17705      1.99908     3.80448    0.01939     5.82295
      N    5   -0.46422      1.99918     5.44802    0.01702     7.46422
      H    6    0.22363      0.00000     0.77472    0.00165     0.77637
      H    7    0.21648      0.00000     0.78206    0.00146     0.78352
      H    8    0.21531      0.00000     0.78328    0.00141     0.78469
      C    9    0.96187      1.99939     2.98978    0.04897     5.03813
      O   10   -0.62034      1.99974     6.61031    0.01030     8.62034
      O   11   -0.58982      1.99969     6.57118    0.01896     8.58982
      C   12    0.27725      1.99910     3.70179    0.02187     5.72275
      C   13   -0.60662      1.99923     4.59610    0.01130     6.60662
      H   14    0.23051      0.00000     0.76797    0.00152     0.76949
      H   15    0.20844      0.00000     0.79031    0.00125     0.79156
      H   16    0.20839      0.00000     0.79023    0.00138     0.79161
      C   17   -0.60662      1.99923     4.59610    0.01130     6.60662
      H   18    0.20844      0.00000     0.79031    0.00125     0.79156
      H   19    0.23050      0.00000     0.76798    0.00152     0.76950
      H   20    0.20840      0.00000     0.79023    0.00138     0.79160
      C   21   -0.58320      1.99923     4.57185    0.01212     6.58320
      H   22    0.20726      0.00000     0.79159    0.00115     0.79274
      H   23    0.21062      0.00000     0.78797    0.00141     0.78938
      H   24    0.21062      0.00000     0.78797    0.00141     0.78938
      C   25   -0.59978      1.99928     4.59149    0.00900     6.59978
      H   26    0.22223      0.00000     0.77596    0.00181     0.77777
      H   27    0.22224      0.00000     0.77594    0.00181     0.77776
      H   28    0.20879      0.00000     0.78984    0.00136     0.79121
 =======================================================================
   * Total *    0.00000     25.99046    71.75341    0.25613    98.00000

                      1                      2                      3
                      A                      A                      A
 Frequencies --     36.4871                54.0935               111.6935
 Red. masses --      3.0645                 4.2086                 4.0490
 Frc consts  --      0.0024                 0.0073                 0.0298
 IR Inten    --      0.0529                 1.7623                 0.4812

                      4                      5                      6
                      A                      A                      A
 Frequencies --    117.8995               146.1742               204.3318
 Red. masses --      3.8329                 3.7095                 1.0755
 Frc consts  --      0.0314                 0.0467                 0.0265
 IR Inten    --      0.8223                 0.9356                 0.0344

                      7                      8                      9
                      A                      A                      A
 Frequencies --    213.3155               240.3487               247.0001
 Red. masses --      1.1678                 3.5520                 1.3192
 Frc consts  --      0.0313                 0.1209                 0.0474
 IR Inten    --      0.1755                 5.2910                 0.5972

                     10                     11                     12
                      A                      A                      A
 Frequencies --    253.6362               262.7194               266.4012
 Red. masses --      2.9159                 1.9627                 1.0610
 Frc consts  --      0.1105                 0.0798                 0.0444
 IR Inten    --      3.0488                 0.3651                 0.0533

                     13                     14                     15
                      A                      A                      A
 Frequencies --    334.3973               350.1613               402.5623
 Red. masses --      3.3563                 2.5363                 3.0638
 Frc consts  --      0.2211                 0.1832                 0.2925
 IR Inten    --     11.2456                 1.0613                 1.0322

                     16                     17                     18
                      A                      A                      A
 Frequencies --    415.2728               458.0288               489.9041
 Red. masses --      2.9639                 2.9235                 3.2446
 Frc consts  --      0.3011                 0.3614                 0.4588
 IR Inten    --      1.9865                 2.6959                 6.3396

                     19                     20                     21
                      A                      A                      A
 Frequencies --    523.4527               609.5095               626.6403
 Red. masses --      3.7642                 3.6090                 3.0907
 Frc consts  --      0.6077                 0.7900                 0.7151
 IR Inten    --      4.9077                 0.9073                 0.0444

                     22                     23                     24
                      A                      A                      A
 Frequencies --    680.7339               723.3690               755.5840
 Red. masses --      4.8439                 1.2975                 4.5580
 Frc consts  --      1.3225                 0.4000                 1.5332
 IR Inten    --      9.7358                62.5150                 0.3250

                     25                     26                     27
                      A                      A                      A
 Frequencies --    780.6869               815.7231               846.6990
 Red. masses --      8.5502                 1.3088                 4.7344
 Frc consts  --      3.0703                 0.5131                 1.9998
 IR Inten    --     12.6916                27.0720                 2.6046

                     28                     29                     30
                      A                      A                      A
 Frequencies --    851.9069               892.4907               893.4284
 Red. masses --      4.8856                 1.3172                 4.6909
 Frc consts  --      2.0891                 0.6182                 2.2061
 IR Inten    --     44.8703                 0.0613                25.8108

                     31                     32                     33
                      A                      A                      A
 Frequencies --    926.6010               930.5367               971.6789
 Red. masses --      1.6377                 1.6453                 1.2003
 Frc consts  --      0.8285                 0.8394                 0.6677
 IR Inten    --      0.0383                 0.0443                 0.0695

                     34                     35                     36
                      A                      A                      A
 Frequencies --   1000.8589              1041.2563              1051.5395
 Red. masses --      1.6134                 1.3084                 1.4106
 Frc consts  --      0.9522                 0.8358                 0.9190
 IR Inten    --     28.9527                 3.9433                 0.6373

                     37                     38                     39
                      A                      A                      A
 Frequencies --   1056.9613              1064.6993              1082.5639
 Red. masses --      1.4442                 1.4604                 2.1996
 Frc consts  --      0.9506                 0.9754                 1.5188
 IR Inten    --      3.0375                 0.9595                90.2754

                     40                     41                     42
                      A                      A                      A
 Frequencies --   1148.1228              1194.3250              1230.3845
 Red. masses --      2.1071                 2.1741                 3.5012
 Frc consts  --      1.6365                 1.8272                 3.1228
 IR Inten    --    441.2748               154.9449                13.6302

                     43                     44                     45
                      A                      A                      A
 Frequencies --   1257.5806              1266.7084              1277.1890
 Red. masses --      1.6616                 2.7508                 2.8168
 Frc consts  --      1.5483                 2.6005                 2.7072
 IR Inten    --     33.7127                15.5891                40.4439

                     46                     47                     48
                      A                      A                      A
 Frequencies --   1321.8254              1347.5007              1401.6448
 Red. masses --      6.3788                 5.7205                 1.2678
 Frc consts  --      6.5665                 6.1198                 1.4675
 IR Inten    --     31.1195               638.8436                22.0772

                     49                     50                     51
                      A                      A                      A
 Frequencies --   1404.7183              1423.4241              1429.5706
 Red. masses --      1.2765                 1.5320                 1.7626
 Frc consts  --      1.4841                 1.8289                 2.1223
 IR Inten    --     33.3001                27.4437                95.2588

                     52                     53                     54
                      A                      A                      A
 Frequencies --   1430.6254              1471.0053              1473.7036
 Red. masses --      1.3253                 1.0449                 1.0423
 Frc consts  --      1.5981                 1.3321                 1.3337
 IR Inten    --      0.0406                 0.2797                 8.8111

                     55                     56                     57
                      A                      A                      A
 Frequencies --   1484.7328              1491.2113              1492.7005
 Red. masses --      1.2134                 1.0452                 1.0508
 Frc consts  --      1.5760                 1.3694                 1.3794
 IR Inten    --      4.1480                 0.1791                 1.2874

                     58                     59                     60
                      A                      A                      A
 Frequencies --   1497.7036              1503.8253              1526.3878
 Red. masses --      1.0690                 1.0528                 1.0638
 Frc consts  --      1.4128                 1.4028                 1.4602
 IR Inten    --     17.7687                 2.5181                27.2941

                     61                     62                     63
                      A                      A                      A
 Frequencies --   1531.2987              1617.1084              1780.3975
 Red. masses --      3.9693                 5.3193                11.8182
 Frc consts  --      5.4839                 8.1957                22.0717
 IR Inten    --     36.3689                 1.7272               336.7697

                     64                     65                     66
                      A                      A                      A
 Frequencies --   3035.4669              3036.4760              3037.2797
 Red. masses --      1.0352                 1.0374                 1.0349
 Frc consts  --      5.6201                 5.6353                 5.6249
 IR Inten    --      8.1426                21.8411                25.4115

                     67                     68                     69
                      A                      A                      A
 Frequencies --   3043.8193              3089.6790              3096.6429
 Red. masses --      1.0375                 1.1005                 1.1020
 Frc consts  --      5.6635                 6.1895                 6.2260
 IR Inten    --     19.2843                11.9217                 5.9221

                     70                     71                     72
                      A                      A                      A
 Frequencies --   3098.3695              3109.1569              3109.8306
 Red. masses --      1.1019                 1.1025                 1.1029
 Frc consts  --      6.2323                 6.2793                 6.2845
 IR Inten    --     14.0814                22.0206                27.2192

                     73                     74                     75
                      A                      A                      A
 Frequencies --   3111.1290              3137.4957              3140.8372
 Red. masses --      1.1017                 1.1004                 1.0997
 Frc consts  --      6.2827                 6.3819                 6.3918
 IR Inten    --     43.9252                 0.4737                12.7453

                     76                     77                     78
                      A                      A                      A
 Frequencies --   3229.2635              3243.4528              3298.6728
 Red. masses --      1.0922                 1.0984                 1.0998
 Frc consts  --      6.7108                 6.8083                 7.0506
 IR Inten    --      7.2788                 2.7293                 2.5607

 - Thermochemistry -
 -------------------
 Temperature   298.150 Kelvin.  Pressure   1.00000 Atm.
 Atom     1 has atomic number  6 and mass  12.00000

 Molecular mass:   181.11028 amu.
 Principal axes and moments of inertia in atomic units:
                           1         2         3
     Eigenvalues --  1107.660503668.376564359.84606
           X            0.99991   0.01357   0.00000
           Y           -0.01357   0.99991   0.00000
           Z            0.00000   0.00000   1.00000
 This molecule is an asymmetric top.
 Rotational symmetry number  1.
 Warning -- assumption of classical behavior for rotation
           may cause significant error
 Rotational temperatures (Kelvin)      0.07820     0.02361     0.01987
 Rotational constants (GHZ):           1.62933     0.49197     0.41395
 Zero-point vibrational energy     619382.2 (Joules/Mol)
                                  148.03589 (Kcal/Mol)
 Warning -- explicit consideration of  20 degrees of freedom as
           vibrations may cause significant error
 Vibrational temperatures:     52.50    77.83   160.70   169.63   210.31
          (Kelvin)            293.99   306.91   345.81   355.38   364.93
                              377.99   383.29   481.12   503.80   579.20
                              597.48   659.00   704.86   753.13   876.95
                              901.59   979.42  1040.77  1087.12  1123.23
                             1173.64  1218.21  1225.70  1284.09  1285.44
                             1333.17  1338.83  1398.03  1440.01  1498.13
                             1512.93  1520.73  1531.86  1557.57  1651.89
                             1718.37  1770.25  1809.38  1822.51  1837.59
                             1901.81  1938.75  2016.65  2021.07  2047.99
                             2056.83  2058.35  2116.45  2120.33  2136.20
                             2145.52  2147.66  2154.86  2163.67  2196.13
                             2203.19  2326.66  2561.59  4367.35  4368.81
                             4369.96  4379.37  4445.35  4455.37  4457.86
                             4473.38  4474.35  4476.22  4514.15  4518.96
                             4646.18  4666.60  4746.05

 Zero-point correction=                           0.235910 (Hartree/Particle)
 Thermal correction to Energy=                    0.249565
 Thermal correction to Enthalpy=                  0.250510
 Thermal correction to Gibbs Free Energy=         0.195907
 Sum of electronic and zero-point Energies=           -595.249032
 Sum of electronic and thermal Energies=              -595.235376
 Sum of electronic and thermal Enthalpies=            -595.234432
 Sum of electronic and thermal Free Energies=         -595.289035

                     E (Thermal)             CV                S
                      KCal/Mol        Cal/Mol-Kelvin    Cal/Mol-Kelvin
 Total                  156.605             51.819            114.921
 Electronic               0.000              0.000              0.000
 Translational            0.889              2.981             41.488
 Rotational               0.889              2.981             31.250
 Vibrational            154.827             45.857             42.183
 Vibration     1          0.594              1.982              5.441
 Vibration     2          0.596              1.976              4.662
 Vibration     3          0.607              1.940              3.239
 Vibration     4          0.608              1.934              3.135
 Vibration     5          0.617              1.907              2.721
 Vibration     6          0.640              1.834              2.094
 Vibration     7          0.644              1.821              2.015
 Vibration     8          0.657              1.779              1.800
 Vibration     9          0.661              1.768              1.752
 Vibration    10          0.665              1.757              1.705
 Vibration    11          0.670              1.741              1.644
 Vibration    12          0.672              1.735              1.619
 Vibration    13          0.716              1.607              1.239
 Vibration    14          0.727              1.575              1.165
 Vibration    15          0.768              1.465              0.953
 Vibration    16          0.779              1.437              0.908
 Vibration    17          0.816              1.343              0.772
 Vibration    18          0.846              1.272              0.684
 Vibration    19          0.878              1.198              0.602
 Vibration    20          0.968              1.012              0.434

 Optimization completed.
    -- Stationary point found.
 Normal termination of Gaussian 09 at Mon Jan  9 17:39:36 2023.
