 Gaussian 09, Revision D.01,
 Gaussian 09:  ES64L-G09RevD.01 24-Apr-2013

 ----------------------------------------------------------------------
 # opt freq b3lyp/6-311+g(d,p) pop=(npa,hirshfeld,chelpg,mbs) geom=conn
 ectivity
 ----------------------------------------------------------------------

 --------
 Table2_5
 --------
 Symbolic Z-matrix:
 Charge =  0 Multiplicity = 1

 SCF Done:  E(RB3LYP) =  -1023.50777799     A.U. after   17 cycles
 SCF Done:  E(RB3LYP) =  -1023.57775041     A.U. after   16 cycles
 SCF Done:  E(RB3LYP) =  -1023.65284174     A.U. after   16 cycles
 SCF Done:  E(RB3LYP) =  -1023.71450415     A.U. after   15 cycles
 SCF Done:  E(RB3LYP) =  -1023.75286816     A.U. after   13 cycles
 SCF Done:  E(RB3LYP) =  -1023.79388856     A.U. after   15 cycles
 SCF Done:  E(RB3LYP) =  -1023.81001537     A.U. after   13 cycles
 SCF Done:  E(RB3LYP) =  -1023.81351536     A.U. after   13 cycles
 SCF Done:  E(RB3LYP) =  -1023.81475411     A.U. after   13 cycles
 SCF Done:  E(RB3LYP) =  -1023.81520393     A.U. after   13 cycles
 SCF Done:  E(RB3LYP) =  -1023.81540170     A.U. after   13 cycles
 SCF Done:  E(RB3LYP) =  -1023.81548676     A.U. after   13 cycles
 SCF Done:  E(RB3LYP) =  -1023.81551288     A.U. after   12 cycles
 SCF Done:  E(RB3LYP) =  -1023.81552141     A.U. after   11 cycles
 SCF Done:  E(RB3LYP) =  -1023.81552231     A.U. after    9 cycles
 SCF Done:  E(RB3LYP) =  -1023.81552235     A.U. after    9 cycles
 Optimization completed.
    -- Stationary point found.
 Normal termination of Gaussian 09 at Wed Oct 13 17:21:07 2021.

 ----------------------------------------------------------------------
 #N Geom=AllCheck Guess=TCheck SCRF=Check GenChk RB3LYP/6-311+G(d,p) Fr
 eq
 ----------------------------------------------------------------------

 Structure from the checkpoint file:  "Table2_5.chk"
 --------
 Table2_5
 --------
 Charge =  0 Multiplicity = 1

                         Standard orientation:
 ---------------------------------------------------------------------
 Center     Atomic      Atomic             Coordinates (Angstroms)
 Number     Number       Type             X           Y           Z
 ---------------------------------------------------------------------
      1          6           0        0.359251   -1.376316    0.034248
      2          6           0        0.907075   -0.117429    0.076251
      3          6           0        0.046861    1.023325   -0.014170
      4          6           0       -1.369850    0.829090   -0.140607
      5          6           0       -1.919606   -0.499032   -0.171176
      6          6           0       -1.036659   -1.558546   -0.088750
      7          1           0        1.621043    2.514421    0.108079
      8          1           0        1.010041   -2.238440    0.095475
      9          6           0        0.554228    2.350803    0.016133
     10          6           0       -2.194234    1.982678   -0.237904
     11          1           0       -1.407454   -2.577777   -0.117446
     12          6           0       -1.671109    3.253886   -0.205282
     13          6           0       -0.279885    3.440417   -0.074106
     14          1           0       -3.264001    1.857061   -0.354173
     15          1           0       -2.327241    4.113380   -0.285078
     16          1           0        0.132048    4.443097   -0.050057
     17         14           0       -3.779119   -0.856545   -0.274086
     18          1           0       -4.377615   -0.045340   -1.373867
     19          6           0       -4.648951   -0.403291    1.341534
     20          1           0       -4.515947    0.651111    1.596656
     21          1           0       -5.723537   -0.598270    1.270513
     22          1           0       -4.253683   -0.996616    2.171529
     23          6           0       -4.075395   -2.678827   -0.663133
     24          1           0       -5.148065   -2.859112   -0.782358
     25          1           0       -3.584011   -2.980357   -1.592039
     26          1           0       -3.720772   -3.333653    0.138070
     27          8           0        3.061313   -1.177260    0.275305
     28          6           0        4.411296   -1.093432    0.575219
     29          1           0        4.764302   -2.123059    0.713393
     30          1           0        4.576469   -0.515531    1.503845
     31          8           0        5.103486   -0.469408   -0.489121
     32          6           0        6.489933   -0.332852   -0.235672
     33          1           0        6.972902   -1.310380   -0.099146
     34          1           0        6.926663    0.158331   -1.104553
     35          1           0        6.679485    0.281281    0.655914
     36          6           0        2.397264    0.082287    0.213433
     37          1           0        2.787024    0.657757   -0.633029
     38          1           0        2.620301    0.650510    1.129896
 ---------------------------------------------------------------------

 SCF Done:  E(RB3LYP) =  -1023.81552235     A.U. after    1 cycles

 The electronic state is 1-A.
 Alpha  occ. eigenvalues --  -66.08432 -19.14317 -19.13740 -10.27565 -10.22940
 Alpha  occ. eigenvalues --  -10.22440 -10.18839 -10.18775 -10.18733 -10.17880
 Alpha  occ. eigenvalues --  -10.17814 -10.17730 -10.17658 -10.17581 -10.16934
 Alpha  occ. eigenvalues --  -10.16540 -10.14942 -10.14718  -5.25757  -3.61586
 Alpha  occ. eigenvalues --   -3.61561  -3.61527  -1.08500  -1.02687  -0.87857
 Alpha  occ. eigenvalues --   -0.82758  -0.79142  -0.74820  -0.74416  -0.71998
 Alpha  occ. eigenvalues --   -0.70701  -0.68624  -0.68195  -0.64085  -0.62443
 Alpha  occ. eigenvalues --   -0.61492  -0.58140  -0.53095  -0.52241  -0.51702
 Alpha  occ. eigenvalues --   -0.50595  -0.50177  -0.49634  -0.47013  -0.45842
 Alpha  occ. eigenvalues --   -0.44790  -0.44037  -0.43350  -0.42555  -0.41736
 Alpha  occ. eigenvalues --   -0.41364  -0.41061  -0.40529  -0.39553  -0.39462
 Alpha  occ. eigenvalues --   -0.38748  -0.38075  -0.36281  -0.34835  -0.34681
 Alpha  occ. eigenvalues --   -0.33419  -0.33353  -0.31775  -0.31149  -0.29950
 Alpha  occ. eigenvalues --   -0.29539  -0.27671  -0.27528  -0.24929  -0.22125
 Alpha virt. eigenvalues --   -0.05301  -0.02085  -0.00352  -0.00007   0.00546
 Alpha virt. eigenvalues --    0.00912   0.01836   0.02042   0.02378   0.02686
 Alpha virt. eigenvalues --    0.03178   0.03435   0.04270   0.04684   0.05060

 Mulliken charges:
               1
     1  C   -0.625936
     2  C    0.550051
     3  C    0.628209
     4  C    0.571915
     5  C   -0.106996
     6  C   -0.404340
     7  H    0.130118
     8  H    0.134426
     9  C   -0.220397
    10  C   -0.140403
    11  H    0.124561
    12  C   -0.482900
    13  C   -0.375381
    14  H    0.121684
    15  H    0.122507
    16  H    0.122456
    17  Si   0.921775
    18  H   -0.151039
    19  C   -0.837782
    20  H    0.167625
    21  H    0.163921
    22  H    0.167843
    23  C   -0.800715
    24  H    0.166190
    25  H    0.171186
    26  H    0.164099
    27  O   -0.183474
    28  C   -0.034373
    29  H    0.143686
    30  H    0.111370
    31  O   -0.229315
    32  C   -0.244811
    33  H    0.126265
    34  H    0.153517
    35  H    0.121558
    36  C   -0.592799
    37  H    0.195981
    38  H    0.149718
 Sum of Mulliken charges =   0.00000

 Dipole moment (field-independent basis, Debye):
    X=              1.9367    Y=              0.3735    Z=              1.5523  Tot=              2.5099
 Quadrupole moment (field-independent basis, Debye-Ang):
   XX=            -95.6571   YY=           -110.5814   ZZ=           -122.5312
   XY=              1.6778   XZ=              4.8186   YZ=             -1.1334

  Exact polarizability: 271.705   3.787 244.577   3.933  -0.113 139.572
 Approx polarizability: 361.345  -4.628 402.655  11.468  -2.582 216.898

 ESP charges:
               1
     1  C   -0.091255
     2  C   -0.097443
     3  C    0.063899
     4  C    0.246728
     5  C   -0.370104
     6  C   -0.034043
     7  H    0.104531
     8  H    0.086926
     9  C   -0.194321
    10  C   -0.246530
    11  H    0.085047
    12  C   -0.056671
    13  C   -0.076981
    14  H    0.142339
    15  H    0.081310
    16  H    0.086283
    17  Si   0.749189
    18  H   -0.233270
    19  C   -0.334459
    20  H    0.043914
    21  H    0.070005
    22  H    0.044535
    23  C   -0.379656
    24  H    0.073346
    25  H    0.066229
    26  H    0.077470
    27  O   -0.460989
    28  C    0.330491
    29  H    0.056813
    30  H    0.001635
    31  O   -0.351878
    32  C    0.037874
    33  H    0.027403
    34  H    0.068094
    35  H    0.028945
    36  C    0.388255
    37  H   -0.011877
    38  H   -0.021784
 Sum of ESP charges =   0.00000

 Summary of Natural Population Analysis:

                                       Natural Population
                Natural  -----------------------------------------------
    Atom  No    Charge         Core      Valence    Rydberg      Total
 -----------------------------------------------------------------------
      C    1   -0.20484      1.99905     4.18679    0.01900     6.20484
      C    2   -0.02441      1.99896     4.00736    0.01809     6.02441
      C    3   -0.07063      1.99882     4.04887    0.02294     6.07063
      C    4   -0.04545      1.99901     4.02655    0.01989     6.04545
      C    5   -0.44024      1.99902     4.41180    0.02942     6.44024
      C    6   -0.16606      1.99896     4.14842    0.01868     6.16606
      H    7    0.19488      0.00000     0.80278    0.00234     0.80512
      H    8    0.22642      0.00000     0.77169    0.00189     0.77358
      C    9   -0.12512      1.99911     4.11682    0.00920     6.12512
      C   10   -0.18058      1.99908     4.16464    0.01686     6.18058
      H   11    0.20014      0.00000     0.79803    0.00183     0.79986
      C   12   -0.20343      1.99915     4.18516    0.01912     6.20343
      C   13   -0.22502      1.99923     4.19710    0.02869     6.22502
      H   14    0.20631      0.00000     0.79186    0.00183     0.79369
      H   15    0.20622      0.00000     0.79240    0.00138     0.79378
      H   16    0.20445      0.00000     0.79329    0.00226     0.79555
     Si   17    1.35637      9.99843     2.61413    0.03106    12.64363
      H   18   -0.18298      0.00000     1.17913    0.00385     1.18298
      C   19   -1.06192      1.99936     5.05239    0.01017     7.06192
      H   20    0.23013      0.00000     0.76870    0.00117     0.76987
      H   21    0.22608      0.00000     0.77295    0.00096     0.77392
      H   22    0.22856      0.00000     0.77031    0.00113     0.77144
      C   23   -1.06723      1.99937     5.05854    0.00932     7.06723
      H   24    0.23155      0.00000     0.76757    0.00088     0.76845
      H   25    0.23253      0.00000     0.76647    0.00101     0.76747
      H   26    0.22625      0.00000     0.77260    0.00115     0.77375
      O   27   -0.58399      1.99974     6.56302    0.02123     8.58399
      C   28    0.30732      1.99928     3.66534    0.02806     5.69268
      H   29    0.15508      0.00000     0.84258    0.00234     0.84492
      H   30    0.12533      0.00000     0.87127    0.00340     0.87467
      O   31   -0.60318      1.99976     6.58471    0.01870     8.60318
      C   32   -0.21075      1.99930     4.19446    0.01698     6.21075
      H   33    0.15963      0.00000     0.83777    0.00260     0.84037
      H   34    0.19072      0.00000     0.80805    0.00123     0.80928
      H   35    0.15811      0.00000     0.83926    0.00263     0.84189
      C   36   -0.04330      1.99907     4.02253    0.02170     6.04330
      H   37    0.19768      0.00000     0.79970    0.00262     0.80232
      H   38    0.17543      0.00000     0.82168    0.00290     0.82457
 =======================================================================
   * Total *    0.00007     43.98469    95.61672    0.39853   139.99993

                      1                      2                      3
                      A                      A                      A
 Frequencies --     22.7964                35.9660                46.1154
 Red. masses --      4.2246                 3.1057                 3.5117
 Frc consts  --      0.0013                 0.0024                 0.0044
 IR Inten    --      0.8780                 0.1470                 0.0609

                      4                      5                      6
                      A                      A                      A
 Frequencies --     56.6560                67.1262                95.1082
 Red. masses --      3.4867                 2.5705                 3.6401
 Frc consts  --      0.0066                 0.0068                 0.0194
 IR Inten    --      1.5352                 2.4847                 1.2767

                      7                      8                      9
                      A                      A                      A
 Frequencies --    109.8529               137.5292               146.5525
 Red. masses --      3.1870                 2.3583                 1.2299
 Frc consts  --      0.0227                 0.0263                 0.0156
 IR Inten    --      2.5788                 0.2407                 0.3284

                     10                     11                     12
                      A                      A                      A
 Frequencies --    153.7605               173.2931               183.6081
 Red. masses --      2.8657                 2.5979                 1.0920
 Frc consts  --      0.0399                 0.0460                 0.0217
 IR Inten    --      1.2880                 2.7297                 0.1922

                     13                     14                     15
                      A                      A                      A
 Frequencies --    190.8640               202.8549               212.2099
 Red. masses --      2.4063                 2.9751                 1.8289
 Frc consts  --      0.0516                 0.0721                 0.0485
 IR Inten    --      1.6566                 3.3985                 5.5466

                     16                     17                     18
                      A                      A                      A
 Frequencies --    242.1490               258.6636               309.2560
 Red. masses --      3.2806                 3.4302                 2.9231
 Frc consts  --      0.1133                 0.1352                 0.1647
 IR Inten    --      3.0884                 3.9330                 2.5118

                     19                     20                     21
                      A                      A                      A
 Frequencies --    330.5989               336.7627               375.9810
 Red. masses --      3.9275                 3.5648                 4.3004
 Frc consts  --      0.2529                 0.2382                 0.3582
 IR Inten    --      2.1292                 1.8356                12.4540

                     22                     23                     24
                      A                      A                      A
 Frequencies --    419.4439               474.8049               477.0904
 Red. masses --      3.0719                 3.4135                 4.4785
 Frc consts  --      0.3184                 0.4534                 0.6006
 IR Inten    --      6.8817                 0.4522                 1.8417

                     25                     26                     27
                      A                      A                      A
 Frequencies --    512.1236               545.8550               568.0661
 Red. masses --      5.5387                 6.5350                 2.9274
 Frc consts  --      0.8559                 1.1472                 0.5566
 IR Inten    --      0.7895                 1.2934                 5.6394

                     28                     29                     30
                      A                      A                      A
 Frequencies --    596.2701               635.3468               642.0760
 Red. masses --      6.4311                 1.9982                 1.3826
 Frc consts  --      1.3472                 0.4752                 0.3358
 IR Inten    --      0.4736                 3.1625                 7.6598

                     31                     32                     33
                      A                      A                      A
 Frequencies --    647.0414               674.8520               697.7550
 Red. masses --      3.8285                 5.0173                 2.3996
 Frc consts  --      0.9444                 1.3463                 0.6883
 IR Inten    --     10.0468                 8.2944                10.0623

                     34                     35                     36
                      A                      A                      A
 Frequencies --    739.5403               762.4526               765.6496
 Red. masses --      1.2577                 2.4259                 1.9624
 Frc consts  --      0.4053                 0.8309                 0.6778
 IR Inten    --     24.2869                14.5106                33.5172

                     37                     38                     39
                      A                      A                      A
 Frequencies --    780.6705               793.9842               813.3561
 Red. masses --      1.9533                 2.2320                 4.9978
 Frc consts  --      0.7014                 0.8290                 1.9480
 IR Inten    --     38.2523                30.2470                 1.0933

                     40                     41                     42
                      A                      A                      A
 Frequencies --    858.7231               866.9542               868.5673
 Red. masses --      1.2687                 1.5157                 1.5769
 Frc consts  --      0.5512                 0.6712                 0.7009
 IR Inten    --     25.0802                49.0932                26.0927

                     43                     44                     45
                      A                      A                      A
 Frequencies --    898.0248               912.8198               944.2050
 Red. masses --      1.4309                 1.2328                 3.7387
 Frc consts  --      0.6799                 0.6052                 1.9638
 IR Inten    --    180.0277                90.7388               122.1413

                     46                     47                     48
                      A                      A                      A
 Frequencies --    963.0545               973.4524               976.8929
 Red. masses --      1.3541                 1.9092                 2.2443
 Frc consts  --      0.7400                 1.0659                 1.2619
 IR Inten    --      1.1389                13.3142                32.7198

                     49                     50                     51
                      A                      A                      A
 Frequencies --    993.4788               996.6116              1037.0683
 Red. masses --      1.3064                 4.7615                 1.7586
 Frc consts  --      0.7597                 2.7864                 1.1144
 IR Inten    --      0.6159                41.0534                 6.1883

                     52                     53                     54
                      A                      A                      A
 Frequencies --   1052.2813              1063.5482              1110.7861
 Red. masses --      3.4002                 2.6601                 7.5529
 Frc consts  --      2.2183                 1.7728                 5.4907
 IR Inten    --      2.1340                 8.3992               324.0726

                     55                     56                     57
                      A                      A                      A
 Frequencies --   1136.9457              1147.1734              1169.6183
 Red. masses --      2.5332                 1.7781                 2.0846
 Frc consts  --      1.9293                 1.3787                 1.6802
 IR Inten    --     36.0407                47.9848               173.4907

                     58                     59                     60
                      A                      A                      A
 Frequencies --   1181.3388              1186.1064              1190.2912
 Red. masses --      1.5059                 1.5540                 1.2478
 Frc consts  --      1.2382                 1.2881                 1.0416
 IR Inten    --      6.5352                74.7397                26.1803

                     61                     62                     63
                      A                      A                      A
 Frequencies --   1230.1165              1231.6613              1257.0941
 Red. masses --      1.9703                 1.8737                 1.9230
 Frc consts  --      1.7566                 1.6747                 1.7905
 IR Inten    --     38.5037                10.0641                21.9271

                     64                     65                     66
                      A                      A                      A
 Frequencies --   1273.9225              1291.2839              1294.3926
 Red. masses --      1.0855                 1.6120                 1.2477
 Frc consts  --      1.0379                 1.5837                 1.2317
 IR Inten    --     21.6095                 1.8301                35.5053

                     67                     68                     69
                      A                      A                      A
 Frequencies --   1298.8218              1302.1167              1337.0406
 Red. masses --      1.2060                 1.2356                 3.8149
 Frc consts  --      1.1987                 1.2344                 4.0182
 IR Inten    --      0.7065                20.6748                 5.4314

                     70                     71                     72
                      A                      A                      A
 Frequencies --   1374.8469              1392.5387              1423.7151
 Red. masses --      6.0274                 1.6587                 1.6073
 Frc consts  --      6.7126                 1.8951                 1.9196
 IR Inten    --      4.7561                26.6702                21.2285

                     73                     74                     75
                      A                      A                      A
 Frequencies --   1441.4103              1457.0569              1459.8335
 Red. masses --      1.2578                 1.8500                 1.0789
 Frc consts  --      1.5397                 2.3140                 1.3547
 IR Inten    --     25.2766                 2.5556                 1.7139

                     76                     77                     78
                      A                      A                      A
 Frequencies --   1461.8457              1470.0791              1473.3121
 Red. masses --      1.1435                 1.0582                 1.0553
 Frc consts  --      1.4398                 1.3475                 1.3497
 IR Inten    --      1.9364                 5.9168                 5.8000

                     79                     80                     81
                      A                      A                      A
 Frequencies --   1477.5337              1484.7571              1488.3441
 Red. masses --      1.1652                 2.2505                 1.0443
 Frc consts  --      1.4987                 2.9230                 1.3630
 IR Inten    --      7.0961                 0.7890                 8.2166

                     82                     83                     84
                      A                      A                      A
 Frequencies --   1502.0894              1510.2136              1523.6132
 Red. masses --      1.0767                 1.1008                 1.1016
 Frc consts  --      1.4313                 1.4792                 1.5066
 IR Inten    --      3.0003                 5.7692                 2.2386

                     85                     86                     87
                      A                      A                      A
 Frequencies --   1549.2121              1604.9254              1629.2801
 Red. masses --      3.0352                 5.7069                 5.8196
 Frc consts  --      4.2920                 8.6608                 9.1019
 IR Inten    --     13.1952                 0.8396                11.5949

                     88                     89                     90
                      A                      A                      A
 Frequencies --   1652.5317              2184.7437              2907.0184
 Red. masses --      5.5008                 1.0402                 1.0679
 Frc consts  --      8.8507                 2.9251                 5.3171
 IR Inten    --      0.3089               136.1800                77.4573

                     91                     92                     93
                      A                      A                      A
 Frequencies --   2964.7595              2973.4090              3017.2921
 Red. masses --      1.0687                 1.0377                 1.1033
 Frc consts  --      5.5347                 5.4056                 5.9180
 IR Inten    --     28.6606                90.2217                84.7884

                     94                     95                     96
                      A                      A                      A
 Frequencies --   3021.1493              3023.1753              3025.4644
 Red. masses --      1.0933                 1.0350                 1.0348
 Frc consts  --      5.8795                 5.5732                 5.5806
 IR Inten    --     42.1614                10.1486                 7.6327

                     97                     98                     99
                      A                      A                      A
 Frequencies --   3039.0516              3090.5148              3092.8858
 Red. masses --      1.0904                 1.1003                 1.0996
 Frc consts  --      5.9333                 6.1921                 6.1975
 IR Inten    --     13.9687                 2.2779                26.0141

                    100                    101                    102
                      A                      A                      A
 Frequencies --   3100.4653              3100.8370              3122.4579
 Red. masses --      1.1006                 1.0998                 1.0958
 Frc consts  --      6.2335                 6.2304                 6.2949
 IR Inten    --     11.9441                11.2699                21.4178

                    103                    104                    105
                      A                      A                      A
 Frequencies --   3163.3917              3163.7274              3174.9834
 Red. masses --      1.0867                 1.0869                 1.0882
 Frc consts  --      6.4071                 6.4099                 6.4634
 IR Inten    --      7.1042                 5.4754                 9.9468

                    106                    107                    108
                      A                      A                      A
 Frequencies --   3186.6857              3193.2396              3207.2124
 Red. masses --      1.0928                 1.0966                 1.0913
 Frc consts  --      6.5384                 6.5879                 6.6137
 IR Inten    --     25.7006                14.1311                 2.3774

 - Thermochemistry -
 -------------------
 Temperature   298.150 Kelvin.  Pressure   1.00000 Atm.
 Atom     1 has atomic number  6 and mass  12.00000

 Molecular mass:   260.12326 amu.
 Principal axes and moments of inertia in atomic units:
                           1         2         3
     Eigenvalues --  2735.81679********************
           X            0.99996   0.00861   0.00048
           Y           -0.00861   0.99996   0.00176
           Z           -0.00047  -0.00176   1.00000
 This molecule is an asymmetric top.
 Rotational symmetry number  1.
 Warning -- assumption of classical behavior for rotation
           may cause significant error
 Rotational temperatures (Kelvin)      0.03166     0.00851     0.00695
 Rotational constants (GHZ):           0.65967     0.17738     0.14473
 Zero-point vibrational energy     821882.8 (Joules/Mol)
                                  196.43471 (Kcal/Mol)
 Warning -- explicit consideration of  28 degrees of freedom as
           vibrations may cause significant error
 Vibrational temperatures:     32.80    51.75    66.35    81.52    96.58
          (Kelvin)            136.84   158.05   197.87   210.86   221.23
                              249.33   264.17   274.61   291.86   305.32
                              348.40   372.16   444.95   475.66   484.53
                              540.95   603.49   683.14   686.43   736.83
                              785.36   817.32   857.90   914.12   923.80
                              930.95   970.96  1003.91  1064.03  1097.00
                             1101.60  1123.21  1142.36  1170.24  1235.51
                             1247.35  1249.67  1292.06  1313.34  1358.50
                             1385.62  1400.58  1405.53  1429.39  1433.90
                             1492.11  1514.00  1530.21  1598.17  1635.81
                             1650.52  1682.82  1699.68  1706.54  1712.56
                             1769.86  1772.08  1808.68  1832.89  1857.87
                             1862.34  1868.71  1873.45  1923.70  1978.10
                             2003.55  2048.41  2073.87  2096.38  2100.37
                             2103.27  2115.11  2119.76  2125.84  2136.23
                             2141.39  2161.17  2172.86  2192.14  2228.97
                             2309.13  2344.17  2377.62  3143.35  4182.55
                             4265.62  4278.07  4341.20  4346.75  4349.67
                             4352.96  4372.51  4446.56  4449.97  4460.87
                             4461.41  4492.51  4551.41  4551.89  4568.09
                             4584.92  4594.35  4614.46

 Zero-point correction=                           0.313039 (Hartree/Particle)
 Thermal correction to Energy=                    0.332508
 Thermal correction to Enthalpy=                  0.333452
 Thermal correction to Gibbs Free Energy=         0.263645
 Sum of electronic and zero-point Energies=          -1023.502484
 Sum of electronic and thermal Energies=             -1023.483014
 Sum of electronic and thermal Enthalpies=           -1023.482070
 Sum of electronic and thermal Free Energies=        -1023.551877

                     E (Thermal)             CV                S
                      KCal/Mol        Cal/Mol-Kelvin    Cal/Mol-Kelvin
 Total                  208.652             72.496            146.922
 Electronic               0.000              0.000              0.000
 Translational            0.889              2.981             42.568
 Rotational               0.889              2.981             34.206
 Vibrational            206.875             66.534             70.149
 Vibration     1          0.593              1.985              6.374
 Vibration     2          0.594              1.982              5.470
 Vibration     3          0.595              1.979              4.977
 Vibration     4          0.596              1.975              4.570
 Vibration     5          0.598              1.970              4.236
 Vibration     6          0.603              1.953              3.552
 Vibration     7          0.606              1.941              3.272
 Vibration     8          0.614              1.916              2.838
 Vibration     9          0.617              1.906              2.717
 Vibration    10          0.619              1.898              2.625
 Vibration    11          0.627              1.875              2.399
 Vibration    12          0.631              1.862              2.291
 Vibration    13          0.634              1.852              2.219
 Vibration    14          0.639              1.836              2.107
 Vibration    15          0.643              1.822              2.025
 Vibration    16          0.658              1.776              1.787
 Vibration    17          0.667              1.748              1.671
 Vibration    18          0.699              1.656              1.366
 Vibration    19          0.713              1.614              1.257
 Vibration    20          0.717              1.602              1.227
 Vibration    21          0.747              1.521              1.055
 Vibration    22          0.782              1.428              0.894
 Vibration    23          0.832              1.306              0.724
 Vibration    24          0.834              1.301              0.718
 Vibration    25          0.867              1.223              0.628
 Vibration    26          0.901              1.149              0.553
 Vibration    27          0.924              1.100              0.508
 Vibration    28          0.954              1.040              0.456

 Normal termination of Gaussian 09 at Wed Oct 13 18:01:31 2021.
