 Gaussian 09, Revision D.01,
 Gaussian 09:  ES64L-G09RevD.01 24-Apr-2013

 ----------------------------------------------------------------------
 # opt freq=noraman b3lyp/6-311+g(d,p) geom=connectivity pop=(hirshfeld
 ,chelpg,mbs,npa)
 ----------------------------------------------------------------------

 -------------------
 Title Card Required
 -------------------
 Symbolic Z-matrix:
 Charge =  0 Multiplicity = 1

 SCF Done:  E(RB3LYP) =  -1078.57835430     A.U. after   15 cycles
 SCF Done:  E(RB3LYP) =  -1078.58429482     A.U. after   13 cycles
 SCF Done:  E(RB3LYP) =  -1078.58530918     A.U. after   12 cycles
 SCF Done:  E(RB3LYP) =  -1078.58569713     A.U. after   11 cycles
 SCF Done:  E(RB3LYP) =  -1078.58574362     A.U. after   10 cycles
 SCF Done:  E(RB3LYP) =  -1078.58574559     A.U. after   10 cycles
 SCF Done:  E(RB3LYP) =  -1078.58574625     A.U. after    9 cycles
 SCF Done:  E(RB3LYP) =  -1078.58574642     A.U. after    8 cycles
 SCF Done:  E(RB3LYP) =  -1078.58574643     A.U. after    7 cycles
 Optimization completed.
    -- Stationary point found.
 Normal termination of Gaussian 09 at Wed Dec 21 11:37:10 2022.

 ----------------------------------------------------------------------
 #N Geom=AllCheck Guess=TCheck SCRF=Check GenChk RB3LYP/6-311+G(d,p) Fr
 eq
 ----------------------------------------------------------------------

 Structure from the checkpoint file:  "TMS-methylthioether.chk"
 -------------------
 Title Card Required
 -------------------
 Charge =  0 Multiplicity = 1

                         Standard orientation:
 ---------------------------------------------------------------------
 Center     Atomic      Atomic             Coordinates (Angstroms)
 Number     Number       Type             X           Y           Z
 ---------------------------------------------------------------------
      1          6           0        0.592543    0.543503   -0.000012
      2          6           0       -0.615169   -0.178583   -0.000115
      3          6           0       -1.853621    0.468060   -0.000080
      4          6           0       -1.892377    1.870472    0.000058
      5          6           0       -0.709722    2.596346    0.000140
      6          6           0        0.524379    1.942294    0.000109
      7          1           0       -0.581870   -1.261750   -0.000234
      8          1           0       -2.847258    2.385161    0.000116
      9          1           0       -0.749595    3.680441    0.000243
     10          1           0        1.432717    2.534778    0.000180
     11         16           0       -3.432491   -0.364291   -0.000250
     12          6           0       -2.992271   -2.130319    0.000360
     13          1           0       -2.434425   -2.404599    0.896620
     14          1           0       -3.943423   -2.663499    0.000577
     15          1           0       -2.434473   -2.405277   -0.895721
     16         14           0        2.250287   -0.380931   -0.000016
     17          6           0        2.360432   -1.470348   -1.541202
     18          1           0        3.306737   -2.020385   -1.564607
     19          1           0        1.551009   -2.205838   -1.574278
     20          1           0        2.298351   -0.870388   -2.453769
     21          6           0        2.360564   -1.469937    1.541450
     22          1           0        3.306648   -2.020353    1.564769
     23          1           0        2.298952   -0.869679    2.453854
     24          1           0        1.550833   -2.205071    1.574950
     25          6           0        3.676750    0.856021   -0.000285
     26          1           0        4.633811    0.324799   -0.000352
     27          1           0        3.659280    1.499077   -0.885139
     28          1           0        3.659494    1.499217    0.884472
 ---------------------------------------------------------------------

 SCF Done:  E(RB3LYP) =  -1078.58574643     A.U. after    1 cycles

 The electronic state is 1-A.
 Alpha  occ. eigenvalues --  -88.85428 -66.08463 -10.21163 -10.20502 -10.18063
 Alpha  occ. eigenvalues --  -10.17990 -10.17841 -10.17433 -10.16756 -10.14903
 Alpha  occ. eigenvalues --  -10.14767 -10.14767  -7.94031  -5.90441  -5.90031
 Alpha  occ. eigenvalues --   -5.89408  -5.25746  -3.61575  -3.61547  -3.61529
 Alpha  occ. eigenvalues --   -0.86683  -0.80348  -0.75357  -0.74139  -0.71458
 Alpha  occ. eigenvalues --   -0.68376  -0.68180  -0.65875  -0.60791  -0.58264
 Alpha  occ. eigenvalues --   -0.52022  -0.47288  -0.46541  -0.44987  -0.44197
 Alpha  occ. eigenvalues --   -0.44192  -0.42362  -0.41361  -0.41019  -0.40075
 Alpha  occ. eigenvalues --   -0.39720  -0.39365  -0.38603  -0.38467  -0.37745
 Alpha  occ. eigenvalues --   -0.35396  -0.33461  -0.31176  -0.30690  -0.29682
 Alpha  occ. eigenvalues --   -0.28966  -0.25763  -0.21523
 Alpha virt. eigenvalues --   -0.02686  -0.01511  -0.01384  -0.00238   0.01143
 Alpha virt. eigenvalues --    0.01678   0.01767   0.02610   0.03637   0.04085
 Alpha virt. eigenvalues --    0.04659   0.04779   0.05184   0.05378   0.05827

 Mulliken charges:
               1
     1  C    0.237999
     2  C   -0.339694
     3  C    0.767558
     4  C   -0.224498
     5  C   -0.621874
     6  C   -0.051688
     7  H    0.124018
     8  H    0.132305
     9  H    0.123640
    10  H    0.123874
    11  S   -0.601271
    12  C   -0.418977
    13  H    0.176492
    14  H    0.180627
    15  H    0.176500
    16  Si   1.078558
    17  C   -0.786136
    18  H    0.159619
    19  H    0.159076
    20  H    0.171768
    21  C   -0.786166
    22  H    0.159619
    23  H    0.171756
    24  H    0.159090
    25  C   -0.768677
    26  H    0.164327
    27  H    0.166084
    28  H    0.166072
 Sum of Mulliken charges =   0.00000

 Dipole moment (field-independent basis, Debye):
    X=              0.9843    Y=             -1.0862    Z=              0.0005  Tot=              1.4658
 Quadrupole moment (field-independent basis, Debye-Ang):
   XX=            -90.5760   YY=            -82.1127   ZZ=            -94.4407
   XY=              3.4321   XZ=             -0.0019   YZ=             -0.0003

  Exact polarizability: 203.315   7.266 175.646   0.002   0.001 118.453
 Approx polarizability: 283.636  11.571 272.634   0.006   0.003 176.631

 ESP charges:
               1
     1  C   -0.216432
     2  C   -0.106257
     3  C    0.162139
     4  C   -0.166940
     5  C   -0.068162
     6  C   -0.068735
     7  H    0.126322
     8  H    0.132155
     9  H    0.077425
    10  H    0.067879
    11  S   -0.248538
    12  C   -0.071723
    13  H    0.041666
    14  H    0.119550
    15  H    0.041689
    16  Si   0.734665
    17  C   -0.427392
    18  H    0.089367
    19  H    0.075297
    20  H    0.061876
    21  C   -0.427911
    22  H    0.089482
    23  H    0.061902
    24  H    0.075580
    25  C   -0.317244
    26  H    0.053406
    27  H    0.054437
    28  H    0.054496
 Sum of ESP charges =   0.00000

 Summary of Natural Population Analysis:

                                       Natural Population
                Natural  -----------------------------------------------
    Atom  No    Charge         Core      Valence    Rydberg      Total
 -----------------------------------------------------------------------
      C    1   -0.44403      1.99904     4.41368    0.03132     6.44403
      C    2   -0.22630      1.99898     4.20927    0.01806     6.22630
      C    3   -0.17205      1.99883     4.15151    0.02171     6.17205
      C    4   -0.21603      1.99903     4.19813    0.01886     6.21603
      C    5   -0.18969      1.99915     4.17163    0.01891     6.18969
      C    6   -0.20815      1.99911     4.19003    0.01900     6.20815
      H    7    0.19885      0.00000     0.79893    0.00222     0.80115
      H    8    0.21162      0.00000     0.78661    0.00177     0.78838
      H    9    0.20636      0.00000     0.79203    0.00161     0.79364
      H   10    0.20345      0.00000     0.79502    0.00153     0.79655
      S   11    0.26299      9.99911     5.69511    0.04278    15.73701
      C   12   -0.71601      1.99928     4.70602    0.01071     6.71601
      H   13    0.21024      0.00000     0.78746    0.00230     0.78976
      H   14    0.22698      0.00000     0.77173    0.00129     0.77302
      H   15    0.21023      0.00000     0.78748    0.00230     0.78977
     Si   16    1.59498      9.99832     2.37434    0.03236    12.40502
      C   17   -1.06456      1.99933     5.05461    0.01062     7.06456
      H   18    0.22527      0.00000     0.77378    0.00095     0.77473
      H   19    0.22481      0.00000     0.77414    0.00105     0.77519
      H   20    0.23013      0.00000     0.76893    0.00094     0.76987
      C   21   -1.06456      1.99933     5.05461    0.01062     7.06456
      H   22    0.22527      0.00000     0.77378    0.00095     0.77473
      H   23    0.23013      0.00000     0.76893    0.00094     0.76987
      H   24    0.22481      0.00000     0.77414    0.00105     0.77519
      C   25   -1.07275      1.99933     5.06342    0.01000     7.07275
      H   26    0.22987      0.00000     0.76927    0.00087     0.77013
      H   27    0.22908      0.00000     0.76992    0.00100     0.77092
      H   28    0.22908      0.00000     0.76992    0.00100     0.77092
 =======================================================================
   * Total *    0.00000     39.98883    65.74443    0.26674   106.00000

                      1                      2                      3
                      A                      A                      A
 Frequencies --     14.7520                32.9862                84.5188
 Red. masses --      2.9542                 4.0759                 3.1621
 Frc consts  --      0.0004                 0.0026                 0.0133
 IR Inten    --      0.6165                 1.8593                 0.1635

                      4                      5                      6
                      A                      A                      A
 Frequencies --     87.9746               149.2152               159.7149
 Red. masses --      3.5704                 1.0262                 1.2312
 Frc consts  --      0.0163                 0.0135                 0.0185
 IR Inten    --      0.2353                 0.0113                 0.0558

                      7                      8                      9
                      A                      A                      A
 Frequencies --    164.2627               171.4635               185.8872
 Red. masses --      2.4148                 1.9400                 1.0936
 Frc consts  --      0.0384                 0.0336                 0.0223
 IR Inten    --      0.1221                 0.0128                 0.0049

                     10                     11                     12
                      A                      A                      A
 Frequencies --    194.5433               201.2418               211.8634
 Red. masses --      2.2170                 2.6847                 2.6868
 Frc consts  --      0.0494                 0.0641                 0.0711
 IR Inten    --      0.0188                 1.5656                 0.2312

                     13                     14                     15
                      A                      A                      A
 Frequencies --    226.2405               253.1645               288.0563
 Red. masses --      1.2989                 3.1460                 3.6636
 Frc consts  --      0.0392                 0.1188                 0.1791
 IR Inten    --      0.0755                 5.7721                 6.4166

                     16                     17                     18
                      A                      A                      A
 Frequencies --    347.7280               364.0874               432.6472
 Red. masses --      4.8244                 4.9212                 6.4832
 Frc consts  --      0.3437                 0.3844                 0.7150
 IR Inten    --      1.1082                20.9117                 1.0149

                     19                     20                     21
                      A                      A                      A
 Frequencies --    434.2823               529.3000               612.7964
 Red. masses --      3.0145                 4.9556                 3.8380
 Frc consts  --      0.3350                 0.8180                 0.8492
 IR Inten    --      5.6924                 0.0400                14.2620

                     22                     23                     24
                      A                      A                      A
 Frequencies --    673.9603               688.8054               691.9359
 Red. masses --      6.2722                 2.4098                 2.3675
 Frc consts  --      1.6786                 0.6736                 0.6679
 IR Inten    --     11.6772                15.2689                 9.9155

                     25                     26                     27
                      A                      A                      A
 Frequencies --    697.3295               707.7453               716.0420
 Red. masses --      1.2095                 2.2808                 6.1454
 Frc consts  --      0.3465                 0.6731                 1.8564
 IR Inten    --      0.0037                 8.5310                 0.0933

                     28                     29                     30
                      A                      A                      A
 Frequencies --    765.9364               772.2189               780.7242
 Red. masses --      2.5333                 1.3595                 2.1402
 Frc consts  --      0.8756                 0.4777                 0.7686
 IR Inten    --     31.9926                60.5374                 2.2147

                     31                     32                     33
                      A                      A                      A
 Frequencies --    796.8807               866.8037               869.9117
 Red. masses --      1.5807                 1.5736                 1.5804
 Frc consts  --      0.5914                 0.6966                 0.7046
 IR Inten    --      3.5052                68.7042                56.7973

                     34                     35                     36
                      A                      A                      A
 Frequencies --    884.6514               888.9319               912.5179
 Red. masses --      1.6897                 1.3759                 1.3559
 Frc consts  --      0.7791                 0.6406                 0.6652
 IR Inten    --    189.9775                 0.1612                 0.6119

                     37                     38                     39
                      A                      A                      A
 Frequencies --    971.6756               986.9292               991.9244
 Red. masses --      1.1862                 1.3631                 1.3219
 Frc consts  --      0.6598                 0.7822                 0.7663
 IR Inten    --      4.1256                 8.5063                 0.0280

                     40                     41                     42
                      A                      A                      A
 Frequencies --   1009.0156              1101.8681              1112.4404
 Red. masses --      5.2425                 2.8368                 2.2025
 Frc consts  --      3.1447                 2.0292                 1.6059
 IR Inten    --      2.0165                21.3505                23.6066

                     43                     44                     45
                      A                      A                      A
 Frequencies --   1149.7008              1203.8227              1289.4050
 Red. masses --      2.1606                 1.1634                 2.6088
 Frc consts  --      1.6826                 0.9933                 2.5555
 IR Inten    --     64.9994                 0.5254                 7.3516

                     46                     47                     48
                      A                      A                      A
 Frequencies --   1295.5066              1295.8074              1305.9243
 Red. masses --      1.5332                 1.2435                 1.2202
 Frc consts  --      1.5161                 1.2302                 1.2261
 IR Inten    --     33.3635                35.7115                13.3958

                     49                     50                     51
                      A                      A                      A
 Frequencies --   1347.8564              1364.5488              1414.4589
 Red. masses --      1.3454                 1.2226                 2.6969
 Frc consts  --      1.4401                 1.3413                 3.1790
 IR Inten    --      0.0176                 2.9341                12.5033

                     52                     53                     54
                      A                      A                      A
 Frequencies --   1456.0416              1457.8339              1460.7689
 Red. masses --      1.0538                 1.0528                 1.0544
 Frc consts  --      1.3163                 1.3183                 1.3256
 IR Inten    --      0.0533                 0.0996                 1.5223

                     55                     56                     57
                      A                      A                      A
 Frequencies --   1466.4313              1469.1743              1470.4890
 Red. masses --      1.0515                 1.0534                 1.0483
 Frc consts  --      1.3322                 1.3396                 1.3356
 IR Inten    --     11.7838                 3.2467                 5.0998

                     58                     59                     60
                      A                      A                      A
 Frequencies --   1477.0343              1484.4327              1499.9757
 Red. masses --      1.0473                 1.0951                 1.8529
 Frc consts  --      1.3462                 1.4218                 2.4562
 IR Inten    --      7.6433                37.2304                10.7212

                     61                     62                     63
                      A                      A                      A
 Frequencies --   1597.9442              1609.4207              3019.2642
 Red. masses --      4.7170                 5.2758                 1.0350
 Frc consts  --      7.0964                 8.0515                 5.5589
 IR Inten    --     19.1100                29.9131                 8.9792

                     64                     65                     66
                      A                      A                      A
 Frequencies --   3019.8998              3021.9912              3038.5442
 Red. masses --      1.0349                 1.0349                 1.0298
 Frc consts  --      5.5609                 5.5684                 5.6019
 IR Inten    --     10.8717                 6.7969                21.4532

                     67                     68                     69
                      A                      A                      A
 Frequencies --   3086.3657              3087.3610              3089.6120
 Red. masses --      1.1000                 1.0999                 1.0993
 Frc consts  --      6.1736                 6.1767                 6.1826
 IR Inten    --      0.0826                 3.9926                47.5946

                     70                     71                     72
                      A                      A                      A
 Frequencies --   3092.9309              3093.8199              3094.6337
 Red. masses --      1.1004                 1.1001                 1.1001
 Frc consts  --      6.2024                 6.2038                 6.2074
 IR Inten    --      0.9401                19.3833                19.8181

                     73                     74                     75
                      A                      A                      A
 Frequencies --   3119.5399              3131.3126              3157.5295
 Red. masses --      1.1082                 1.1027                 1.0854
 Frc consts  --      6.3539                 6.3701                 6.3759
 IR Inten    --      8.6123                 5.4857                 2.1430

                     76                     77                     78
                      A                      A                      A
 Frequencies --   3169.4229              3175.7096              3181.6286
 Red. masses --      1.0902                 1.0878                 1.0964
 Frc consts  --      6.4524                 6.4639                 6.5388
 IR Inten    --      8.7269                 9.3557                19.3139

 - Thermochemistry -
 -------------------
 Temperature   298.150 Kelvin.  Pressure   1.00000 Atm.
 Atom     1 has atomic number  6 and mass  12.00000

 Molecular mass:   196.07420 amu.
 Principal axes and moments of inertia in atomic units:
                           1         2         3
     Eigenvalues --  1609.127794393.218635414.67529
           X            0.99998   0.00611  -0.00001
           Y           -0.00611   0.99998   0.00000
           Z            0.00001   0.00000   1.00000
 This molecule is an asymmetric top.
 Rotational symmetry number  1.
 Warning -- assumption of classical behavior for rotation
           may cause significant error
 Rotational temperatures (Kelvin)      0.05383     0.01972     0.01600
 Rotational constants (GHZ):           1.12156     0.41080     0.33331
 Zero-point vibrational energy     602505.9 (Joules/Mol)
                                  144.00236 (Kcal/Mol)
 Warning -- explicit consideration of  21 degrees of freedom as
           vibrations may cause significant error
 Vibrational temperatures:     21.22    47.46   121.60   126.58   214.69
          (Kelvin)            229.79   236.34   246.70   267.45   279.90
                              289.54   304.82   325.51   364.25   414.45
                              500.30   523.84   622.48   624.83   761.54
                              881.68   969.68   991.04   995.54  1003.30
                             1018.29  1030.22  1102.01  1111.05  1123.29
                             1146.53  1247.14  1251.61  1272.81  1278.97
                             1312.91  1398.02  1419.97  1427.16  1451.75
                             1585.34  1600.55  1654.16  1732.03  1855.16
                             1863.94  1864.38  1878.93  1939.26  1963.28
                             2035.09  2094.92  2097.50  2101.72  2109.86
                             2113.81  2115.70  2125.12  2135.76  2158.13
                             2299.08  2315.59  4344.04  4344.96  4347.97
                             4371.78  4440.59  4442.02  4445.26  4450.03
                             4451.31  4452.48  4488.32  4505.25  4542.98
                             4560.09  4569.13  4577.65

 Zero-point correction=                           0.229482 (Hartree/Particle)
 Thermal correction to Energy=                    0.245109
 Thermal correction to Enthalpy=                  0.246053
 Thermal correction to Gibbs Free Energy=         0.185529
 Sum of electronic and zero-point Energies=          -1078.356264
 Sum of electronic and thermal Energies=             -1078.340638
 Sum of electronic and thermal Enthalpies=           -1078.339694
 Sum of electronic and thermal Free Energies=        -1078.400217

                     E (Thermal)             CV                S
                      KCal/Mol        Cal/Mol-Kelvin    Cal/Mol-Kelvin
 Total                  153.808             56.860            127.382
 Electronic               0.000              0.000              0.000
 Translational            0.889              2.981             41.725
 Rotational               0.889              2.981             32.015
 Vibrational            152.030             50.898             53.642
 Vibration     1          0.593              1.986              7.239
 Vibration     2          0.594              1.983              5.641
 Vibration     3          0.601              1.960              3.783
 Vibration     4          0.601              1.958              3.705
 Vibration     5          0.618              1.904              2.682
 Vibration     6          0.622              1.892              2.553
 Vibration     7          0.623              1.886              2.500
 Vibration     8          0.626              1.878              2.419
 Vibration     9          0.632              1.859              2.268
 Vibration    10          0.635              1.847              2.184
 Vibration    11          0.638              1.838              2.122
 Vibration    12          0.643              1.823              2.028
 Vibration    13          0.650              1.801              1.909
 Vibration    14          0.664              1.757              1.708
 Vibration    15          0.685              1.696              1.485
 Vibration    16          0.725              1.580              1.176
 Vibration    17          0.738              1.546              1.105
 Vibration    18          0.794              1.399              0.850
 Vibration    19          0.795              1.396              0.845
 Vibration    20          0.884              1.185              0.589
 Vibration    21          0.972              1.005              0.428

 Optimization completed.
    -- Stationary point found.
 Normal termination of Gaussian 09 at Wed Dec 21 11:43:37 2022.
