 Gaussian 09, Revision D.01,
 Gaussian 09:  ES64L-G09RevD.01 24-Apr-2013

 ----------------------------------------------------------------------
 # opt freq b3lyp/6-311+g(d,p) geom=connectivity pop=(hirshfeld,chelpg,
 mbs,npa)
 ----------------------------------------------------------------------

 --------
 Table2_1
 --------
 Symbolic Z-matrix:
 Charge =  0 Multiplicity = 1

 SCF Done:  E(RB3LYP) =  -854.638609489     A.U. after   15 cycles
 SCF Done:  E(RB3LYP) =  -854.651505872     A.U. after   13 cycles
 SCF Done:  E(RB3LYP) =  -854.652821927     A.U. after   12 cycles
 SCF Done:  E(RB3LYP) =  -854.653222446     A.U. after   12 cycles
 SCF Done:  E(RB3LYP) =  -854.653250757     A.U. after   12 cycles
 SCF Done:  E(RB3LYP) =  -854.653261850     A.U. after   12 cycles
 SCF Done:  E(RB3LYP) =  -854.653288133     A.U. after   12 cycles
 SCF Done:  E(RB3LYP) =  -854.653292112     A.U. after   10 cycles
 SCF Done:  E(RB3LYP) =  -854.653292376     A.U. after    9 cycles
 SCF Done:  E(RB3LYP) =  -854.653292418     A.U. after    9 cycles
 Optimization completed.
    -- Stationary point found.
 Normal termination of Gaussian 09 at Thu Oct  7 17:32:03 2021.

 ----------------------------------------------------------------------
 #N Geom=AllCheck Guess=TCheck SCRF=Check GenChk RB3LYP/6-311+G(d,p) Fr
 eq
 ----------------------------------------------------------------------

 Structure from the checkpoint file:  "Table2_1.chk"
 --------
 Table2_1
 --------
 Charge =  0 Multiplicity = 1

                         Standard orientation:
 ---------------------------------------------------------------------
 Center     Atomic      Atomic             Coordinates (Angstroms)
 Number     Number       Type             X           Y           Z
 ---------------------------------------------------------------------
      1          6           0        0.667463   -2.353774    0.122012
      2          6           0        1.776833   -1.560465    0.129752
      3          6           0        1.718549   -0.152963    0.004013
      4          6           0        0.422946    0.446682   -0.133204
      5          6           0       -0.759098   -0.372106   -0.134364
      6          6           0       -0.599871   -1.741728   -0.012061
      7          1           0        3.850826    0.171203    0.116154
      8          1           0        0.769419   -3.427735    0.216897
      9          6           0        2.886306    0.651093    0.009631
     10          6           0        0.378042    1.860938   -0.270033
     11          1           0       -1.467651   -2.392014   -0.018181
     12          6           0        1.522821    2.623182   -0.263205
     13          6           0        2.789390    2.015449   -0.119505
     14          1           0       -0.580514    2.349490   -0.395541
     15          1           0        1.453654    3.699716   -0.372252
     16          1           0        3.684192    2.627218   -0.114873
     17         14           0       -2.511948    0.342956   -0.256785
     18          1           0       -2.557929    1.324601   -1.378520
     19          6           0       -2.990552    1.233001    1.338852
     20          1           0       -2.295771    2.041962    1.578826
     21          1           0       -3.992627    1.664912    1.255818
     22          1           0       -2.992976    0.537875    2.183731
     23          6           0       -3.752398   -1.029856   -0.624227
     24          1           0       -4.748487   -0.597706   -0.759224
     25          1           0       -3.499267   -1.569332   -1.540847
     26          1           0       -3.819491   -1.755347    0.191701
     27          9           0        3.000145   -2.132548    0.260593
 ---------------------------------------------------------------------

 SCF Done:  E(RB3LYP) =  -854.653292418     A.U. after    1 cycles

 The electronic state is 1-A.
 Alpha  occ. eigenvalues --  -66.09137 -24.69517 -10.26739 -10.20123 -10.19870
 Alpha  occ. eigenvalues --  -10.19156 -10.18694 -10.18693 -10.18655 -10.18556
 Alpha  occ. eigenvalues --  -10.18540 -10.17540 -10.15590 -10.15300  -5.26463
 Alpha  occ. eigenvalues --   -3.62293  -3.62270  -3.62229  -1.23363  -0.88880
 Alpha  occ. eigenvalues --   -0.83751  -0.78432  -0.75911  -0.73514  -0.71071
 Alpha  occ. eigenvalues --   -0.68824  -0.64223  -0.63492  -0.60927  -0.55253
 Alpha  occ. eigenvalues --   -0.53602  -0.51590  -0.50336  -0.47731  -0.47353
 Alpha  occ. eigenvalues --   -0.45486  -0.44651  -0.44087  -0.42165  -0.41936
 Alpha  occ. eigenvalues --   -0.41118  -0.40308  -0.40124  -0.39650  -0.39397
 Alpha  occ. eigenvalues --   -0.36883  -0.35214  -0.34298  -0.32418  -0.31820
 Alpha  occ. eigenvalues --   -0.31252  -0.28996  -0.26209  -0.22940
 Alpha virt. eigenvalues --   -0.05989  -0.03288  -0.00852  -0.00030   0.00469
 Alpha virt. eigenvalues --    0.01474   0.01810   0.02500   0.02618   0.03670
 Alpha virt. eigenvalues --    0.04745   0.05105   0.05241   0.05460   0.06389

 Mulliken charges:
               1
     1  C   -0.218234
     2  C   -0.312896
     3  C    0.199354
     4  C    0.532905
     5  C   -0.158303
     6  C   -0.143843
     7  H    0.135392
     8  H    0.132283
     9  C    0.205302
    10  C   -0.124213
    11  H    0.133153
    12  C   -0.416966
    13  C   -0.299539
    14  H    0.124011
    15  H    0.126501
    16  H    0.128345
    17  Si   0.915869
    18  H   -0.149671
    19  C   -0.836587
    20  H    0.168533
    21  H    0.166430
    22  H    0.169355
    23  C   -0.792494
    24  H    0.167825
    25  H    0.171690
    26  H    0.163673
    27  F   -0.187873
 Sum of Mulliken charges =   0.00000

 Dipole moment (field-independent basis, Debye):
    X=             -1.3480    Y=              0.6090    Z=              0.2259  Tot=              1.4964
 Quadrupole moment (field-independent basis, Debye-Ang):
   XX=            -88.3984   YY=            -85.1226   ZZ=            -95.5053
   XY=              6.1101   XZ=             -0.9498   YZ=             -0.2310

  Exact polarizability: 204.984  14.584 194.393   1.879  -3.134 104.055
 Approx polarizability: 303.767  21.801 333.633   6.163 -12.537 160.408

 ESP charges:
               1
     1  C   -0.245811
     2  C    0.271871
     3  C   -0.000492
     4  C    0.231464
     5  C   -0.391760
     6  C    0.011443
     7  H    0.112114
     8  H    0.145990
     9  C   -0.113585
    10  C   -0.234248
    11  H    0.086986
    12  C   -0.035193
    13  C   -0.117415
    14  H    0.138305
    15  H    0.082833
    16  H    0.097041
    17  Si   0.750973
    18  H   -0.228430
    19  C   -0.328148
    20  H    0.045465
    21  H    0.067852
    22  H    0.046653
    23  C   -0.390461
    24  H    0.079537
    25  H    0.067680
    26  H    0.080370
    27  F   -0.231034
 Sum of ESP charges =   0.00000

 Summary of Natural Population Analysis:

                                       Natural Population
                Natural  -----------------------------------------------
    Atom  No    Charge         Core      Valence    Rydberg      Total
 -----------------------------------------------------------------------
      C    1   -0.27360      1.99902     4.25667    0.01790     6.27360
      C    2    0.44461      1.99837     3.53026    0.02675     5.55539
      C    3   -0.11716      1.99889     4.10290    0.01537     6.11716
      C    4   -0.03505      1.99902     4.01756    0.01847     6.03505
      C    5   -0.43347      1.99894     4.40995    0.02457     6.43347
      C    6   -0.17920      1.99915     4.16111    0.01895     6.17920
      H    7    0.22146      0.00000     0.77674    0.00181     0.77854
      H    8    0.22465      0.00000     0.77365    0.00170     0.77535
      C    9   -0.17650      1.99909     4.15890    0.01851     6.17650
      C   10   -0.18419      1.99908     4.16965    0.01546     6.18419
      H   11    0.20585      0.00000     0.79247    0.00168     0.79415
      C   12   -0.19378      1.99916     4.17635    0.01826     6.19378
      C   13   -0.19887      1.99916     4.18193    0.01778     6.19887
      H   14    0.20927      0.00000     0.78898    0.00175     0.79073
      H   15    0.20793      0.00000     0.79064    0.00143     0.79207
      H   16    0.20881      0.00000     0.78978    0.00141     0.79119
     Si   17    1.35640      9.99844     2.61422    0.03094    12.64360
      H   18   -0.18151      0.00000     1.17772    0.00379     1.18151
      C   19   -1.06237      1.99935     5.05286    0.01015     7.06237
      H   20    0.23087      0.00000     0.76799    0.00114     0.76913
      H   21    0.22753      0.00000     0.77154    0.00094     0.77247
      H   22    0.22949      0.00000     0.76942    0.00110     0.77051
      C   23   -1.06782      1.99937     5.05905    0.00940     7.06782
      H   24    0.23337      0.00000     0.76576    0.00087     0.76663
      H   25    0.23281      0.00000     0.76617    0.00102     0.76719
      H   26    0.22647      0.00000     0.77236    0.00117     0.77353
      F   27   -0.35598      1.99993     7.34800    0.00806     9.35598
 =======================================================================
   * Total *    0.00000     35.98697    71.74264    0.27039   108.00000

                      1                      2                      3
                      A                      A                      A
 Frequencies --     49.2035                63.9818               122.0348
 Red. masses --      3.0456                 4.0543                 2.7288
 Frc consts  --      0.0043                 0.0098                 0.0239
 IR Inten    --      0.1433                 0.0366                 0.1576

                      4                      5                      6
                      A                      A                      A
 Frequencies --    140.4441               150.8800               165.5364
 Red. masses --      4.5528                 1.1872                 3.2731
 Frc consts  --      0.0529                 0.0159                 0.0528
 IR Inten    --      0.8155                 0.1066                 0.6682

                      7                      8                      9
                      A                      A                      A
 Frequencies --    184.1083               191.9339               205.4925
 Red. masses --      1.1099                 2.4396                 4.1058
 Frc consts  --      0.0222                 0.0530                 0.1022
 IR Inten    --      0.1505                 0.4574                 2.1887

                     10                     11                     12
                      A                      A                      A
 Frequencies --    245.5006               290.3836               337.2735
 Red. masses --      3.4631                 6.8345                 6.0564
 Frc consts  --      0.1230                 0.3395                 0.4059
 IR Inten    --      2.8218                 0.6863                 9.8573

                     13                     14                     15
                      A                      A                      A
 Frequencies --    361.3777               423.2340               474.1829
 Red. masses --      4.9595                 3.1378                 3.3382
 Frc consts  --      0.3816                 0.3312                 0.4422
 IR Inten    --     13.7199                 5.2748                 0.1611

                     16                     17                     18
                      A                      A                      A
 Frequencies --    483.0876               506.7653               556.5137
 Red. masses --      7.3337                 4.7602                 6.4863
 Frc consts  --      1.0084                 0.7203                 1.1836
 IR Inten    --      0.7957                 0.7687                 1.7857

                     19                     20                     21
                      A                      A                      A
 Frequencies --    599.5680               625.9819               637.4502
 Red. masses --      2.9118                 5.0178                 2.3065
 Frc consts  --      0.6167                 1.1585                 0.5522
 IR Inten    --      6.3785                 8.4843                 1.3835

                     22                     23                     24
                      A                      A                      A
 Frequencies --    642.8719               665.0672               700.5073
 Red. masses --      1.2979                 4.1306                 2.3587
 Frc consts  --      0.3160                 1.0765                 0.6819
 IR Inten    --      8.7413                 3.4821                10.2765

                     25                     26                     27
                      A                      A                      A
 Frequencies --    717.5971               740.9664               772.5227
 Red. masses --      5.4358                 1.3423                 1.4984
 Frc consts  --      1.6492                 0.4342                 0.5269
 IR Inten    --     10.7152                24.3492                31.2301

                     28                     29                     30
                      A                      A                      A
 Frequencies --    780.0336               793.0717               805.8323
 Red. masses --      2.0862                 2.1157                 5.2512
 Frc consts  --      0.7479                 0.7840                 2.0091
 IR Inten    --     43.8406                48.8398                 1.2431

                     31                     32                     33
                      A                      A                      A
 Frequencies --    845.8909               868.5152               873.9722
 Red. masses --      1.3819                 1.4663                 1.5701
 Frc consts  --      0.5826                 0.6517                 0.7066
 IR Inten    --     25.8257                70.0085                 2.1052

                     34                     35                     36
                      A                      A                      A
 Frequencies --    900.4284               912.6357               952.8169
 Red. masses --      1.3772                 1.2270                 1.3625
 Frc consts  --      0.6579                 0.6021                 0.7288
 IR Inten    --    161.0017                88.4362                 0.5190

                     37                     38                     39
                      A                      A                      A
 Frequencies --    966.6137               973.9596              1001.2781
 Red. masses --      4.5864                 1.3539                 1.2952
 Frc consts  --      2.5248                 0.7567                 0.7650
 IR Inten    --    132.0402                 1.5653                 0.0759

                     40                     41                     42
                      A                      A                      A
 Frequencies --   1045.9527              1060.6705              1126.6903
 Red. masses --      3.0411                 2.9990                 2.2438
 Frc consts  --      1.9602                 1.9878                 1.6782
 IR Inten    --     10.5269                25.2345                37.1026

                     43                     44                     45
                      A                      A                      A
 Frequencies --   1178.0550              1183.6327              1230.3876
 Red. masses --      1.4538                 1.2457                 1.9297
 Frc consts  --      1.1887                 1.0282                 1.7212
 IR Inten    --      3.2276                 2.3136                25.2144

                     46                     47                     48
                      A                      A                      A
 Frequencies --   1257.9405              1287.4467              1297.2011
 Red. masses --      2.0030                 1.8425                 1.2527
 Frc consts  --      1.8675                 1.7993                 1.2419
 IR Inten    --     27.0662                11.3646                34.1559

                     49                     50                     51
                      A                      A                      A
 Frequencies --   1304.5939              1329.9543              1381.7800
 Red. masses --      1.2348                 4.8746                 6.9375
 Frc consts  --      1.2382                 5.0800                 7.8042
 IR Inten    --     25.1052                17.6540                 5.7436

                     52                     53                     54
                      A                      A                      A
 Frequencies --   1412.6141              1450.8076              1459.8764
 Red. masses --      2.1200                 2.3106                 1.0557
 Frc consts  --      2.4925                 2.8654                 1.3256
 IR Inten    --     27.1850                20.6601                 2.5791

                     55                     56                     57
                      A                      A                      A
 Frequencies --   1462.2022              1469.7313              1473.7244
 Red. masses --      1.0719                 1.0541                 1.0518
 Frc consts  --      1.3502                 1.3415                 1.3459
 IR Inten    --      2.6114                 5.8825                 8.1588

                     58                     59                     60
                      A                      A                      A
 Frequencies --   1489.0499              1541.1495              1600.5633
 Red. masses --      2.4989                 3.3475                 6.4614
 Frc consts  --      3.2645                 4.6845                 9.7526
 IR Inten    --     12.0739                38.1678                24.4565

                     61                     62                     63
                      A                      A                      A
 Frequencies --   1637.6311              1660.9449              2187.6509
 Red. masses --      5.6652                 6.3862                 1.0402
 Frc consts  --      8.9516                10.3802                 2.9330
 IR Inten    --     34.9638                11.8656               127.8506

                     64                     65                     66
                      A                      A                      A
 Frequencies --   3024.3661              3025.6761              3091.6926
 Red. masses --      1.0350                 1.0348                 1.1002
 Frc consts  --      5.5778                 5.5816                 6.1963
 IR Inten    --      8.7436                 6.7659                 0.2133

                     67                     68                     69
                      A                      A                      A
 Frequencies --   3093.5979              3100.6667              3101.9728
 Red. masses --      1.0997                 1.1007                 1.0997
 Frc consts  --      6.2009                 6.2347                 6.2345
 IR Inten    --     24.7916                10.8056                11.5587

                     70                     71                     72
                      A                      A                      A
 Frequencies --   3166.6552              3169.7626              3179.8210
 Red. masses --      1.0861                 1.0882                 1.0894
 Frc consts  --      6.4167                 6.4422                 6.4899
 IR Inten    --      2.3373                 8.2573                11.6372

                     73                     74                     75
                      A                      A                      A
 Frequencies --   3191.1867              3198.3003              3202.1066
 Red. masses --      1.0943                 1.0935                 1.0948
 Frc consts  --      6.5661                 6.5905                 6.6138
 IR Inten    --     11.9337                 5.1546                 8.0349

 - Thermochemistry -
 -------------------
 Temperature   298.150 Kelvin.  Pressure   1.00000 Atm.
 Atom     1 has atomic number  6 and mass  12.00000

 Molecular mass:   204.07706 amu.
 Principal axes and moments of inertia in atomic units:
                           1         2         3
     Eigenvalues --  1925.931543944.028085540.31857
           X            0.99939   0.03469  -0.00404
           Y           -0.03465   0.99935   0.00978
           Z            0.00438  -0.00963   0.99994
 This molecule is an asymmetric top.
 Rotational symmetry number  1.
 Warning -- assumption of classical behavior for rotation
           may cause significant error
 Rotational temperatures (Kelvin)      0.04497     0.02196     0.01563
 Rotational constants (GHZ):           0.93707     0.45759     0.32575
 Zero-point vibrational energy     555100.6 (Joules/Mol)
                                  132.67222 (Kcal/Mol)
 Warning -- explicit consideration of  19 degrees of freedom as
           vibrations may cause significant error
 Vibrational temperatures:     70.79    92.06   175.58   202.07   217.08
          (Kelvin)            238.17   264.89   276.15   295.66   353.22
                              417.80   485.26   519.94   608.94   682.24
                              695.05   729.12   800.70   862.64   900.65
                              917.15   924.95   956.88  1007.87  1032.46
                             1066.08  1111.49  1122.29  1141.05  1159.41
                             1217.05  1249.60  1257.45  1295.51  1313.08
                             1370.89  1390.74  1401.31  1440.61  1504.89
                             1526.07  1621.05  1694.96  1702.98  1770.25
                             1809.89  1852.35  1866.38  1877.02  1913.51
                             1988.07  2032.43  2087.39  2100.43  2103.78
                             2114.61  2120.36  2142.41  2217.37  2302.85
                             2356.18  2389.73  3147.54  4351.38  4353.27
                             4448.25  4450.99  4461.16  4463.04  4556.10
                             4560.58  4575.05  4591.40  4601.64  4607.11

 Zero-point correction=                           0.211427 (Hartree/Particle)
 Thermal correction to Energy=                    0.225112
 Thermal correction to Enthalpy=                  0.226056
 Thermal correction to Gibbs Free Energy=         0.171283
 Sum of electronic and zero-point Energies=           -854.441866
 Sum of electronic and thermal Energies=              -854.428181
 Sum of electronic and thermal Enthalpies=            -854.427237
 Sum of electronic and thermal Free Energies=         -854.482010

                     E (Thermal)             CV                S
                      KCal/Mol        Cal/Mol-Kelvin    Cal/Mol-Kelvin
 Total                  141.260             53.420            115.279
 Electronic               0.000              0.000              0.000
 Translational            0.889              2.981             41.844
 Rotational               0.889              2.981             32.109
 Vibrational            139.482             47.458             41.326
 Vibration     1          0.595              1.978              4.849
 Vibration     2          0.597              1.971              4.330
 Vibration     3          0.610              1.931              3.068
 Vibration     4          0.615              1.913              2.798
 Vibration     5          0.618              1.902              2.661
 Vibration     6          0.624              1.885              2.486
 Vibration     7          0.631              1.861              2.286
 Vibration     8          0.634              1.851              2.209
 Vibration     9          0.640              1.832              2.083
 Vibration    10          0.660              1.770              1.763
 Vibration    11          0.686              1.692              1.472
 Vibration    12          0.718              1.601              1.225
 Vibration    13          0.736              1.552              1.116
 Vibration    14          0.785              1.420              0.881
 Vibration    15          0.831              1.307              0.726
 Vibration    16          0.839              1.288              0.702
 Vibration    17          0.862              1.235              0.641
 Vibration    18          0.912              1.125              0.531
 Vibration    19          0.958              1.033              0.450

 Optimization completed.
    -- Stationary point found.
 Normal termination of Gaussian 09 at Thu Oct  7 17:42:04 2021.
