 Gaussian 09, Revision D.01,
 Gaussian 09:  ES64L-G09RevD.01 24-Apr-2013

 ----------------------------------------------------------------------
 # opt freq b3lyp/6-311+g(d,p) pop=(npa,hirshfeld,chelpg,mbs) geom=conn
 ectivity
 ----------------------------------------------------------------------

 --------
 Table2_3
 --------
 Symbolic Z-matrix:
 Charge =  0 Multiplicity = 1

 SCF Done:  E(RB3LYP) =  -794.692739189     A.U. after   15 cycles
 SCF Done:  E(RB3LYP) =  -794.707645190     A.U. after   13 cycles
 SCF Done:  E(RB3LYP) =  -794.709642816     A.U. after   12 cycles
 SCF Done:  E(RB3LYP) =  -794.710779005     A.U. after   13 cycles
 SCF Done:  E(RB3LYP) =  -794.710969642     A.U. after   12 cycles
 SCF Done:  E(RB3LYP) =  -794.710987827     A.U. after   12 cycles
 SCF Done:  E(RB3LYP) =  -794.711034159     A.U. after   11 cycles
 SCF Done:  E(RB3LYP) =  -794.711052375     A.U. after   11 cycles
 SCF Done:  E(RB3LYP) =  -794.711053710     A.U. after   10 cycles
 SCF Done:  E(RB3LYP) =  -794.711053783     A.U. after    9 cycles
 SCF Done:  E(RB3LYP) =  -794.711053825     A.U. after    8 cycles
 Optimization completed.
    -- Stationary point found.
 Normal termination of Gaussian 09 at Wed Oct 13 16:54:12 2021.

 ----------------------------------------------------------------------
 #N Geom=AllCheck Guess=TCheck SCRF=Check GenChk RB3LYP/6-311+G(d,p) Fr
 eq
 ----------------------------------------------------------------------

 Structure from the checkpoint file:  "Table2_3.chk"
 --------
 Table2_3
 --------
 Charge =  0 Multiplicity = 1

                         Standard orientation:
 ---------------------------------------------------------------------
 Center     Atomic      Atomic             Coordinates (Angstroms)
 Number     Number       Type             X           Y           Z
 ---------------------------------------------------------------------
      1          6           0        0.736447   -2.299413    0.101479
      2          6           0        1.862332   -1.508793    0.119372
      3          6           0        1.703106   -0.090360   -0.002611
      4          6           0        0.387372    0.469683   -0.136560
      5          6           0       -0.768602   -0.385266   -0.141006
      6          6           0       -0.556937   -1.746078   -0.026551
      7          1           0        3.817385    0.373784    0.104645
      8          1           0        0.840192   -3.376499    0.188065
      9          6           0        2.821324    0.786235    0.002706
     10          6           0        0.274389    1.880433   -0.267815
     11          1           0       -1.398671   -2.430756   -0.033810
     12          6           0        1.378228    2.700416   -0.260218
     13          6           0        2.667585    2.147282   -0.120255
     14          1           0       -0.707496    2.321704   -0.390432
     15          1           0        1.258062    3.772945   -0.364929
     16          1           0        3.536761    2.795501   -0.113515
     17         14           0       -2.546210    0.264456   -0.252076
     18          1           0       -2.644621    1.242181   -1.374429
     19          6           0       -3.049676    1.138785    1.345863
     20          1           0       -2.385256    1.974716    1.579059
     21          1           0       -4.068729    1.530443    1.269565
     22          1           0       -3.018028    0.445633    2.191839
     23          6           0       -3.741186   -1.152167   -0.607255
     24          1           0       -4.753281   -0.755724   -0.732990
     25          1           0       -3.477418   -1.683014   -1.525910
     26          1           0       -3.774047   -1.879215    0.209341
     27          6           0        3.228709   -2.131420    0.262858
     28          1           0        3.869129   -1.904220   -0.595446
     29          1           0        3.745760   -1.768999    1.157115
     30          1           0        3.148640   -3.216883    0.340854
 ---------------------------------------------------------------------

 SCF Done:  E(RB3LYP) =  -794.711053825     A.U. after    1 cycles

 The electronic state is 1-A.
 Alpha  occ. eigenvalues --  -66.08536 -10.18914 -10.18890 -10.18595 -10.17811
 Alpha  occ. eigenvalues --  -10.17784 -10.17763 -10.17723 -10.17671 -10.17337
 Alpha  occ. eigenvalues --  -10.17234 -10.16649 -10.15079 -10.14804  -5.25862
 Alpha  occ. eigenvalues --   -3.61691  -3.61666  -3.61632  -0.87857  -0.82829
 Alpha  occ. eigenvalues --   -0.78958  -0.74472  -0.73921  -0.71064  -0.68441
 Alpha  occ. eigenvalues --   -0.68300  -0.62585  -0.61787  -0.58116  -0.51888
 Alpha  occ. eigenvalues --   -0.51084  -0.50155  -0.47081  -0.45621  -0.43858
 Alpha  occ. eigenvalues --   -0.42993  -0.42068  -0.41582  -0.41351  -0.40824
 Alpha  occ. eigenvalues --   -0.39646  -0.39568  -0.38849  -0.38366  -0.37977
 Alpha  occ. eigenvalues --   -0.35807  -0.34024  -0.33415  -0.31750  -0.31205
 Alpha  occ. eigenvalues --   -0.29984  -0.28079  -0.25061  -0.22144
 Alpha virt. eigenvalues --   -0.05336  -0.02260  -0.00503   0.00383   0.00426
 Alpha virt. eigenvalues --    0.01376   0.02132   0.02400   0.02631   0.03555
 Alpha virt. eigenvalues --    0.04611   0.04741   0.05063   0.05735   0.06095

 Mulliken charges:
               1
     1  C   -1.065075
     2  C    0.558310
     3  C    0.687846
     4  C    0.345552
     5  C    0.082541
     6  C   -0.218819
     7  H    0.128536
     8  H    0.110888
     9  C   -0.225741
    10  C   -0.139958
    11  H    0.124573
    12  C   -0.468002
    13  C   -0.257330
    14  H    0.120238
    15  H    0.122452
    16  H    0.122563
    17  Si   0.921641
    18  H   -0.150798
    19  C   -0.836749
    20  H    0.167971
    21  H    0.164449
    22  H    0.168109
    23  C   -0.802393
    24  H    0.166308
    25  H    0.171236
    26  H    0.163349
    27  C   -0.621133
    28  H    0.159878
    29  H    0.159392
    30  H    0.140164
 Sum of Mulliken charges =   0.00000

 Dipole moment (field-independent basis, Debye):
    X=              0.4284    Y=             -0.5458    Z=              0.4294  Tot=              0.8159
 Quadrupole moment (field-independent basis, Debye-Ang):
   XX=            -85.2212   YY=            -86.6630   ZZ=            -98.4877
   XY=              0.0798   XZ=             -0.1842   YZ=             -0.5990

  Exact polarizability: 222.964   7.377 209.441   2.932  -3.379 113.721
 Approx polarizability: 323.523  18.911 353.311   7.030 -11.630 177.226

 ESP charges:
               1
     1  C   -0.209607
     2  C    0.070465
     3  C    0.040092
     4  C    0.229250
     5  C   -0.376209
     6  C    0.006598
     7  H    0.118035
     8  H    0.108268
     9  C   -0.156913
    10  C   -0.242955
    11  H    0.076479
    12  C   -0.028071
    13  C   -0.124541
    14  H    0.136928
    15  H    0.076427
    16  H    0.094586
    17  Si   0.743608
    18  H   -0.230878
    19  C   -0.320468
    20  H    0.043175
    21  H    0.065058
    22  H    0.042349
    23  C   -0.385010
    24  H    0.076698
    25  H    0.065377
    26  H    0.079031
    27  C   -0.125108
    28  H    0.036935
    29  H    0.036076
    30  H    0.054325
 Sum of ESP charges =   0.00000

 Summary of Natural Population Analysis:

                                       Natural Population
                Natural  -----------------------------------------------
    Atom  No    Charge         Core      Valence    Rydberg      Total
 -----------------------------------------------------------------------
      C    1   -0.20748      1.99903     4.18906    0.01940     6.20748
      C    2    0.00413      1.99898     3.98046    0.01643     5.99587
      C    3   -0.09365      1.99903     4.06990    0.02473     6.09365
      C    4    0.05507      1.99900     3.93391    0.01202     5.94493
      C    5   -0.46523      1.99907     4.42839    0.03777     6.46523
      C    6   -0.18149      1.99911     4.16344    0.01894     6.18149
      H    7    0.20483      0.00000     0.79334    0.00184     0.79517
      H    8    0.20163      0.00000     0.79654    0.00183     0.79837
      C    9   -0.17284      1.99893     4.15733    0.01658     6.17284
      C   10   -0.20941      1.99918     4.18647    0.02377     6.20941
      H   11    0.20136      0.00000     0.79699    0.00165     0.79864
      C   12   -0.20104      1.99916     4.18358    0.01830     6.20104
      C   13   -0.20740      1.99918     4.18749    0.02074     6.20740
      H   14    0.20591      0.00000     0.79185    0.00224     0.79409
      H   15    0.20605      0.00000     0.79259    0.00136     0.79395
      H   16    0.20542      0.00000     0.79300    0.00159     0.79458
     Si   17    1.35474      9.99844     2.61443    0.03240    12.64526
      H   18   -0.18284      0.00000     1.17880    0.00403     1.18284
      C   19   -1.06195      1.99935     5.05226    0.01033     7.06195
      H   20    0.23045      0.00000     0.76840    0.00115     0.76955
      H   21    0.22619      0.00000     0.77285    0.00096     0.77381
      H   22    0.22860      0.00000     0.77027    0.00113     0.77140
      C   23   -1.06734      1.99937     5.05847    0.00950     7.06734
      H   24    0.23185      0.00000     0.76725    0.00091     0.76815
      H   25    0.23200      0.00000     0.76696    0.00104     0.76800
      H   26    0.22594      0.00000     0.77286    0.00120     0.77406
      C   27   -0.59674      1.99930     4.58768    0.00976     6.59674
      H   28    0.21219      0.00000     0.78618    0.00162     0.78781
      H   29    0.21216      0.00000     0.78622    0.00162     0.78784
      H   30    0.20900      0.00000     0.78957    0.00142     0.79100
 =======================================================================
   * Total *    0.00010     35.98712    71.71654    0.29624   107.99990

                      1                      2                      3
                      A                      A                      A
 Frequencies --     49.5041                61.6210               121.7379
 Red. masses --      2.9728                 3.3885                 2.5162
 Frc consts  --      0.0043                 0.0076                 0.0220
 IR Inten    --      0.0893                 0.2499                 0.1112

                      4                      5                      6
                      A                      A                      A
 Frequencies --    128.7225               145.6006               162.9271
 Red. masses --      3.1937                 1.2159                 2.4858
 Frc consts  --      0.0312                 0.0152                 0.0389
 IR Inten    --      0.0786                 0.0423                 0.1493

                      7                      8                      9
                      A                      A                      A
 Frequencies --    184.6172               190.0559               192.0725
 Red. masses --      1.0839                 1.6579                 1.6872
 Frc consts  --      0.0218                 0.0353                 0.0367
 IR Inten    --      0.1616                 2.3313                 0.3126

                     10                     11                     12
                      A                      A                      A
 Frequencies --    203.1345               246.4092               293.6541
 Red. masses --      2.7584                 3.1964                 3.0501
 Frc consts  --      0.0671                 0.1143                 0.1550
 IR Inten    --      2.8390                 2.2886                 0.8285

                     13                     14                     15
                      A                      A                      A
 Frequencies --    325.9265               354.2891               421.6393
 Red. masses --      3.7649                 4.7144                 3.0578
 Frc consts  --      0.2356                 0.3486                 0.3203
 IR Inten    --      0.6243                12.9428                 6.9812

                     16                     17                     18
                      A                      A                      A
 Frequencies --    476.9379               480.9445               494.3973
 Red. masses --      3.2902                 4.2352                 4.3614
 Frc consts  --      0.4410                 0.5772                 0.6281
 IR Inten    --      0.1632                 1.4148                 0.9632

                     19                     20                     21
                      A                      A                      A
 Frequencies --    534.9216               574.3398               626.5212
 Red. masses --      5.9628                 2.8241                 4.4104
 Frc consts  --      1.0053                 0.5489                 1.0200
 IR Inten    --      0.5098                 4.0851                 3.7234

                     22                     23                     24
                      A                      A                      A
 Frequencies --    637.6840               643.9038               664.6626
 Red. masses --      1.5927                 1.6783                 4.0338
 Frc consts  --      0.3816                 0.4100                 1.0500
 IR Inten    --      5.0751                 5.5543                11.9096

                     25                     26                     27
                      A                      A                      A
 Frequencies --    700.3281               710.6014               740.0188
 Red. masses --      2.3873                 4.7805                 1.2696
 Frc consts  --      0.6899                 1.4222                 0.4096
 IR Inten    --     10.4406                 0.4961                26.3644

                     28                     29                     30
                      A                      A                      A
 Frequencies --    767.1880               782.3698               796.2853
 Red. masses --      1.4273                 1.8381                 2.3513
 Frc consts  --      0.4950                 0.6629                 0.8784
 IR Inten    --     42.1955                50.9653                25.2834

                     31                     32                     33
                      A                      A                      A
 Frequencies --    807.4339               845.7976               867.2260
 Red. masses --      5.3516                 1.2395                 1.4699
 Frc consts  --      2.0557                 0.5224                 0.6513
 IR Inten    --      1.0934                22.6753                75.3300

                     34                     35                     36
                      A                      A                      A
 Frequencies --    872.2950               898.2568               912.4031
 Red. masses --      1.6990                 1.4104                 1.2289
 Frc consts  --      0.7617                 0.6705                 0.6028
 IR Inten    --      1.4463               163.1470                86.9711

                     37                     38                     39
                      A                      A                      A
 Frequencies --    949.1306               962.7209               966.8373
 Red. masses --      2.7911                 1.3701                 1.3552
 Frc consts  --      1.4814                 0.7482                 0.7464
 IR Inten    --    103.9954                 0.3461                 1.7418

                     40                     41                     42
                      A                      A                      A
 Frequencies --    995.5925              1009.8191              1051.7977
 Red. masses --      1.2981                 2.4121                 2.7339
 Frc consts  --      0.7581                 1.4492                 1.7820
 IR Inten    --      0.0429                 4.9311                10.1004

                     43                     44                     45
                      A                      A                      A
 Frequencies --   1060.4054              1081.5899              1137.2376
 Red. masses --      1.5436                 2.2624                 2.5571
 Frc consts  --      1.0226                 1.5594                 1.9485
 IR Inten    --      1.1600                 0.1488                 7.6790

                     46                     47                     48
                      A                      A                      A
 Frequencies --   1179.8658              1187.3464              1233.0352
 Red. masses --      1.5546                 1.1542                 1.7973
 Frc consts  --      1.2750                 0.9587                 1.6099
 IR Inten    --      2.5352                 0.2886                 9.6779

                     49                     50                     51
                      A                      A                      A
 Frequencies --   1258.7047              1292.3518              1295.8195
 Red. masses --      1.9006                 1.7642                 1.2697
 Frc consts  --      1.7742                 1.7360                 1.2561
 IR Inten    --      2.7744                 2.8471                32.4172

                     52                     53                     54
                      A                      A                      A
 Frequencies --   1303.0510              1336.6054              1375.8402
 Red. masses --      1.2393                 3.6302                 7.2865
 Frc consts  --      1.2398                 3.8211                 8.1265
 IR Inten    --     21.2620                 5.9711                 2.0998

                     55                     56                     57
                      A                      A                      A
 Frequencies --   1405.1513              1417.0521              1452.1347
 Red. masses --      1.8416                 1.3521                 2.1201
 Frc consts  --      2.1423                 1.5997                 2.6340
 IR Inten    --      3.7864                 2.8547                 3.2909

                     58                     59                     60
                      A                      A                      A
 Frequencies --   1460.0758              1462.2341              1469.2835
 Red. masses --      1.0618                 1.0729                 1.0550
 Frc consts  --      1.3336                 1.3515                 1.3418
 IR Inten    --      3.1364                 1.0999                 5.9656

                     61                     62                     63
                      A                      A                      A
 Frequencies --   1474.0694              1484.2860              1487.2974
 Red. masses --      1.0563                 2.1840                 1.0452
 Frc consts  --      1.3523                 2.8349                 1.3622
 IR Inten    --      5.9170                 4.0567                 8.4300

                     64                     65                     66
                      A                      A                      A
 Frequencies --   1502.2046              1546.6898              1603.4418
 Red. masses --      1.1415                 3.2289                 5.7247
 Frc consts  --      1.5177                 4.5511                 8.6718
 IR Inten    --      7.5302                13.7352                 1.9365

                     67                     68                     69
                      A                      A                      A
 Frequencies --   1627.4899              1651.9758              2184.2020
 Red. masses --      5.4560                 5.5427                 1.0402
 Frc consts  --      8.5146                 8.9121                 2.9237
 IR Inten    --     13.7496                 0.5273               134.0183

                     70                     71                     72
                      A                      A                      A
 Frequencies --   3021.0949              3023.7713              3025.3418
 Red. masses --      1.0380                 1.0350                 1.0348
 Frc consts  --      5.5818                 5.5754                 5.5801
 IR Inten    --     33.9328                 9.3354                 7.4828

                     73                     74                     75
                      A                      A                      A
 Frequencies --   3067.7107              3090.9688              3092.9647
 Red. masses --      1.1000                 1.1003                 1.0997
 Frc consts  --      6.0991                 6.1937                 6.1983
 IR Inten    --     15.8206                 0.5865                26.6568

                     76                     77                     78
                      A                      A                      A
 Frequencies --   3100.4219              3101.7088              3105.0620
 Red. masses --      1.1006                 1.0997                 1.0993
 Frc consts  --      6.2335                 6.2335                 6.2447
 IR Inten    --     11.4187                11.9020                17.9596

                     79                     80                     81
                      A                      A                      A
 Frequencies --   3151.0161              3162.7869              3168.6806
 Red. masses --      1.0871                 1.0855                 1.0928
 Frc consts  --      6.3594                 6.3975                 6.4645
 IR Inten    --     13.1416                 0.8957                23.1252

                     82                     83                     84
                      A                      A                      A
 Frequencies --   3174.7902              3187.0586              3194.9172
 Red. masses --      1.0887                 1.0935                 1.0951
 Frc consts  --      6.4652                 6.5444                 6.5859
 IR Inten    --     11.9524                20.5316                14.6350

 - Thermochemistry -
 -------------------
 Temperature   298.150 Kelvin.  Pressure   1.00000 Atm.
 Atom     1 has atomic number  6 and mass  12.00000

 Molecular mass:   200.10213 amu.
 Principal axes and moments of inertia in atomic units:
                           1         2         3
     Eigenvalues --  1918.526903902.188475482.59620
           X            0.99989  -0.01448  -0.00086
           Y            0.01449   0.99989   0.00430
           Z            0.00080  -0.00431   0.99999
 This molecule is an asymmetric top.
 Rotational symmetry number  1.
 Warning -- assumption of classical behavior for rotation
           may cause significant error
 Rotational temperatures (Kelvin)      0.04515     0.02220     0.01580
 Rotational constants (GHZ):           0.94069     0.46249     0.32918
 Zero-point vibrational energy     648914.7 (Joules/Mol)
                                  155.09433 (Kcal/Mol)
 Warning -- explicit consideration of  20 degrees of freedom as
           vibrations may cause significant error
 Vibrational temperatures:     71.23    88.66   175.15   185.20   209.49
          (Kelvin)            234.42   265.62   273.45   276.35   292.26
                              354.53   422.50   468.93   509.74   606.64
                              686.21   691.97   711.33   769.63   826.35
                              901.42   917.48   926.43   956.30  1007.61
                             1022.40  1064.72  1103.81  1125.65  1145.68
                             1161.72  1216.91  1247.74  1255.04  1292.39
                             1312.74  1365.59  1385.14  1391.06  1432.43
                             1452.90  1513.30  1525.68  1556.16  1636.23
                             1697.56  1708.32  1774.06  1810.99  1859.40
                             1864.39  1874.80  1923.07  1979.52  2021.70
                             2038.82  2089.30  2100.72  2103.83  2113.97
                             2120.85  2135.55  2139.89  2161.33  2225.34
                             2306.99  2341.59  2376.82  3142.58  4346.68
                             4350.53  4352.79  4413.75  4447.21  4450.08
                             4460.81  4462.66  4467.49  4533.60  4550.54
                             4559.02  4567.81  4585.46  4596.77

 Zero-point correction=                           0.247159 (Hartree/Particle)
 Thermal correction to Energy=                    0.261600
 Thermal correction to Enthalpy=                  0.262544
 Thermal correction to Gibbs Free Energy=         0.206399
 Sum of electronic and zero-point Energies=           -794.463895
 Sum of electronic and thermal Energies=              -794.449454
 Sum of electronic and thermal Enthalpies=            -794.448510
 Sum of electronic and thermal Free Energies=         -794.504655

                     E (Thermal)             CV                S
                      KCal/Mol        Cal/Mol-Kelvin    Cal/Mol-Kelvin
 Total                  164.156             56.399            118.166
 Electronic               0.000              0.000              0.000
 Translational            0.889              2.981             41.786
 Rotational               0.889              2.981             32.085
 Vibrational            162.379             50.437             44.296
 Vibration     1          0.595              1.978              4.837
 Vibration     2          0.597              1.973              4.405
 Vibration     3          0.609              1.931              3.073
 Vibration     4          0.611              1.925              2.965
 Vibration     5          0.617              1.907              2.729
 Vibration     6          0.623              1.888              2.516
 Vibration     7          0.631              1.861              2.281
 Vibration     8          0.633              1.854              2.227
 Vibration     9          0.634              1.851              2.208
 Vibration    10          0.639              1.835              2.105
 Vibration    11          0.661              1.769              1.756
 Vibration    12          0.688              1.686              1.453
 Vibration    13          0.710              1.624              1.280
 Vibration    14          0.730              1.566              1.147
 Vibration    15          0.784              1.423              0.886
 Vibration    16          0.834              1.301              0.718
 Vibration    17          0.837              1.292              0.708
 Vibration    18          0.850              1.262              0.672
 Vibration    19          0.890              1.173              0.576
 Vibration    20          0.931              1.087              0.496

 Optimization completed.
    -- Stationary point found.
 Normal termination of Gaussian 09 at Wed Oct 13 17:07:34 2021.
