 Gaussian 09, Revision D.01,
 Gaussian 09:  ES64L-G09RevD.01 24-Apr-2013

 ----------------------------------------------------------------------
 # opt freq=noraman b3lyp/6-311+g(d,p) pop=(npa,hirshfeld,chelpg,mbs) g
 eom=connectivity
 ----------------------------------------------------------------------

 -------------------
 Title Card Required
 -------------------
 Symbolic Z-matrix:
 Charge =  0 Multiplicity = 1

 SCF Done:  E(RB3LYP) =  -386.200691433     A.U. after   14 cycles
 SCF Done:  E(RB3LYP) =  -386.206059441     A.U. after   12 cycles
 SCF Done:  E(RB3LYP) =  -386.206788867     A.U. after   11 cycles
 SCF Done:  E(RB3LYP) =  -386.207154281     A.U. after   11 cycles
 SCF Done:  E(RB3LYP) =  -386.207252164     A.U. after   10 cycles
 SCF Done:  E(RB3LYP) =  -386.207272726     A.U. after   10 cycles
 SCF Done:  E(RB3LYP) =  -386.207280025     A.U. after    9 cycles
 SCF Done:  E(RB3LYP) =  -386.207282901     A.U. after    9 cycles
 SCF Done:  E(RB3LYP) =  -386.207275508     A.U. after   10 cycles
 SCF Done:  E(RB3LYP) =  -386.208155916     A.U. after   13 cycles
 SCF Done:  E(RB3LYP) =  -386.211241939     A.U. after   14 cycles
 SCF Done:  E(RB3LYP) =  -386.212068962     A.U. after   14 cycles
 SCF Done:  E(RB3LYP) =  -386.210830163     A.U. after   12 cycles
 SCF Done:  E(RB3LYP) =  -386.212397094     A.U. after   10 cycles
 SCF Done:  E(RB3LYP) =  -386.212450307     A.U. after   11 cycles
 SCF Done:  E(RB3LYP) =  -386.211539377     A.U. after   13 cycles
 SCF Done:  E(RB3LYP) =  -386.212503488     A.U. after    9 cycles
 SCF Done:  E(RB3LYP) =  -386.212555453     A.U. after   10 cycles
 SCF Done:  E(RB3LYP) =  -386.212555839     A.U. after    8 cycles
 Optimization completed.
    -- Stationary point found.
 Normal termination of Gaussian 09 at Tue Apr 23 11:50:18 2024.

 ----------------------------------------------------------------------
 #N Geom=AllCheck Guess=TCheck SCRF=Check GenChk RB3LYP/6-311+G(d,p) Fr
 eq
 ----------------------------------------------------------------------

 Structure from the checkpoint file:  "23.chk"
 -------------------
 Title Card Required
 -------------------
 Charge =  0 Multiplicity = 1

                         Standard orientation:
 ---------------------------------------------------------------------
 Center     Atomic      Atomic             Coordinates (Angstroms)
 Number     Number       Type             X           Y           Z
 ---------------------------------------------------------------------
      1          6           0       -1.078638   -0.606928   -0.000050
      2          6           0       -0.686547    0.748963    0.000132
      3          6           0        0.669277    1.074360    0.000022
      4          6           0        1.647875    0.080797   -0.000038
      5          6           0        1.272384   -1.258929    0.000154
      6          6           0       -0.083575   -1.584474    0.000001
      7          1           0        2.024091   -2.042859    0.000096
      8          1           0       -0.370238   -2.631261    0.000091
      9          8           0        2.958374    0.488354   -0.000044
     10          1           0        3.535604   -0.282037   -0.000494
     11          1           0        0.986354    2.111227    0.000093
     12          6           0       -2.536651   -0.998962   -0.000075
     13          1           0       -3.062463   -0.612423    0.879696
     14          1           0       -3.062773   -0.610999   -0.879005
     15          1           0       -2.647722   -2.085009   -0.000922
     16          6           0       -1.718621    1.850424   -0.000011
     17          1           0       -2.369078    1.790579   -0.878916
     18          1           0       -2.368732    1.790931    0.879189
     19          1           0       -1.245067    2.833503   -0.000294
 ---------------------------------------------------------------------

 SCF Done:  E(RB3LYP) =  -386.212555839     A.U. after    1 cycles

 The electronic state is 1-A.
 Alpha  occ. eigenvalues --  -19.15492 -10.23381 -10.18417 -10.17593 -10.17475
 Alpha  occ. eigenvalues --  -10.17286 -10.16876 -10.16771 -10.16694  -1.06488
 Alpha  occ. eigenvalues --   -0.86132  -0.77762  -0.76594  -0.70464  -0.67462
 Alpha  occ. eigenvalues --   -0.61164  -0.59575  -0.53211  -0.49404  -0.47134
 Alpha  occ. eigenvalues --   -0.43987  -0.43793  -0.41705  -0.40697  -0.40696
 Alpha  occ. eigenvalues --   -0.40224  -0.39027  -0.37339  -0.35372  -0.33942
 Alpha  occ. eigenvalues --   -0.32661  -0.25078  -0.22187
 Alpha virt. eigenvalues --   -0.01367  -0.00298   0.00113   0.00592   0.01698
 Alpha virt. eigenvalues --    0.02963   0.04194   0.04656   0.05386   0.06244
 Alpha virt. eigenvalues --    0.06420   0.07270   0.07689   0.08345   0.10293

 Mulliken charges:
               1
     1  C    0.082446
     2  C    0.395305
     3  C   -0.084947
     4  C   -0.352505
     5  C    0.209860
     6  C   -0.287391
     7  H    0.100913
     8  H    0.111714
     9  O   -0.263471
    10  H    0.244045
    11  H    0.116398
    12  C   -0.645644
    13  H    0.147394
    14  H    0.147307
    15  H    0.138376
    16  C   -0.503402
    17  H    0.150442
    18  H    0.150478
    19  H    0.142680
 Sum of Mulliken charges =   0.00000

 Dipole moment (field-independent basis, Debye):
    X=             -0.4452    Y=             -1.1539    Z=             -0.0007  Tot=              1.2368
 Quadrupole moment (field-independent basis, Debye-Ang):
   XX=            -49.1288   YY=            -51.4207   ZZ=            -58.1651
   XY=             -5.7275   XZ=             -0.0031   YZ=              0.0004

  Exact polarizability: 125.792  -2.431 105.978  -0.003   0.000  60.802
 Approx polarizability: 185.687  -1.422 166.582  -0.004   0.000  92.746

 ESP charges:
               1
     1  C    0.027694
     2  C    0.122295
     3  C   -0.341833
     4  C    0.440225
     5  C   -0.322196
     6  C   -0.136481
     7  H    0.131023
     8  H    0.125391
     9  O   -0.633296
    10  H    0.419974
    11  H    0.184453
    12  C   -0.175538
    13  H    0.057574
    14  H    0.057510
    15  H    0.050462
    16  C   -0.178279
    17  H    0.060636
    18  H    0.060602
    19  H    0.049781
 Sum of ESP charges =   0.00000

 Summary of Natural Population Analysis:

                                       Natural Population
                Natural  -----------------------------------------------
    Atom  No    Charge         Core      Valence    Rydberg      Total
 -----------------------------------------------------------------------
      C    1   -0.06284      1.99895     4.04853    0.01535     6.06284
      C    2   -0.00882      1.99898     3.99517    0.01466     6.00882
      C    3   -0.24986      1.99895     4.23346    0.01745     6.24986
      C    4    0.31500      1.99875     3.66246    0.02378     5.68500
      C    5   -0.28870      1.99905     4.27168    0.01797     6.28870
      C    6   -0.17830      1.99908     4.16184    0.01739     6.17830
      H    7    0.20090      0.00000     0.79699    0.00211     0.79910
      H    8    0.20150      0.00000     0.79670    0.00180     0.79850
      O    9   -0.68019      1.99975     6.66805    0.01239     8.68019
      H   10    0.46772      0.00000     0.52791    0.00437     0.53228
      H   11    0.21465      0.00000     0.78331    0.00203     0.78535
      C   12   -0.58795      1.99931     4.57914    0.00950     6.58795
      H   13    0.20695      0.00000     0.79148    0.00157     0.79305
      H   14    0.20693      0.00000     0.79149    0.00157     0.79307
      H   15    0.20576      0.00000     0.79282    0.00142     0.79424
      C   16   -0.59116      1.99931     4.58216    0.00969     6.59116
      H   17    0.21032      0.00000     0.78818    0.00150     0.78968
      H   18    0.21033      0.00000     0.78818    0.00150     0.78967
      H   19    0.20777      0.00000     0.79082    0.00142     0.79223
 =======================================================================
   * Total *    0.00000     17.99215    47.85038    0.15747    66.00000

                      1                      2                      3
                      A                      A                      A
 Frequencies --    128.7105               140.4432               168.5027
 Red. masses --      1.6250                 1.5095                 1.2027
 Frc consts  --      0.0159                 0.0175                 0.0201
 IR Inten    --      0.0794                 0.3754                 1.4646

                      4                      5                      6
                      A                      A                      A
 Frequencies --    215.7013               289.4256               300.5802
 Red. masses --      2.2791                 1.1024                 2.6165
 Frc consts  --      0.0625                 0.0544                 0.1393
 IR Inten    --      6.8686               100.9625                 1.4210

                      7                      8                      9
                      A                      A                      A
 Frequencies --    320.6567               333.2933               455.0582
 Red. masses --      3.4833                 3.9992                 2.8767
 Frc consts  --      0.2110                 0.2617                 0.3510
 IR Inten    --      4.3361                 7.5985                 1.6219

                     10                     11                     12
                      A                      A                      A
 Frequencies --    456.7164               493.4000               560.9739
 Red. masses --      5.1051                 3.2965                 4.6103
 Frc consts  --      0.6274                 0.4728                 0.8548
 IR Inten    --      5.4460                 1.0368                 2.1123

                     13                     14                     15
                      A                      A                      A
 Frequencies --    577.3113               694.0781               736.1854
 Red. masses --      3.0475                 3.2389                 5.6469
 Frc consts  --      0.5984                 0.9193                 1.8032
 IR Inten    --      6.0010                 1.9236                 6.4081

                     16                     17                     18
                      A                      A                      A
 Frequencies --    756.5700               803.8224               878.9583
 Red. masses --      4.1716                 1.4042                 1.3911
 Frc consts  --      1.4068                 0.5346                 0.6332
 IR Inten    --      1.8611                33.4542                15.4377

                     19                     20                     21
                      A                      A                      A
 Frequencies --    932.5097               961.3693              1015.1939
 Red. masses --      1.2931                 2.9802                 1.6196
 Frc consts  --      0.6625                 1.6229                 0.9835
 IR Inten    --      0.2194                15.8672                 0.3241

                     22                     23                     24
                      A                      A                      A
 Frequencies --   1021.8488              1044.2063              1063.9439
 Red. masses --      1.5060                 1.4291                 1.5570
 Frc consts  --      0.9265                 0.9181                 1.0385
 IR Inten    --     34.2311                 4.4682                 0.0007

                     25                     26                     27
                      A                      A                      A
 Frequencies --   1134.6121              1175.6380              1199.5110
 Red. masses --      1.8795                 1.4292                 1.4668
 Frc consts  --      1.4256                 1.1638                 1.2435
 IR Inten    --     30.3243                45.5362                70.6760

                     28                     29                     30
                      A                      A                      A
 Frequencies --   1221.7429              1285.8281              1314.5648
 Red. masses --      2.1886                 3.2123                 1.7754
 Frc consts  --      1.9248                 3.1292                 1.8076
 IR Inten    --     21.2007                31.7699                61.2385

                     31                     32                     33
                      A                      A                      A
 Frequencies --   1340.7229              1412.6704              1423.8583
 Red. masses --      4.5056                 1.2579                 1.2298
 Frc consts  --      4.7718                 1.4791                 1.4690
 IR Inten    --     33.2193                 1.5129                 2.4143

                     34                     35                     36
                      A                      A                      A
 Frequencies --   1464.3105              1480.1118              1494.5863
 Red. masses --      1.7448                 1.0442                 1.0430
 Frc consts  --      2.2042                 1.3478                 1.3728
 IR Inten    --      6.1576                 0.0044                17.9657

                     37                     38                     39
                      A                      A                      A
 Frequencies --   1497.2107              1504.7775              1530.7575
 Red. masses --      1.2564                 1.3289                 2.5095
 Frc consts  --      1.6594                 1.7729                 3.4645
 IR Inten    --      1.9472                10.7516                88.8672

                     40                     41                     42
                      A                      A                      A
 Frequencies --   1623.6598              1660.2022              3015.0285
 Red. masses --      6.1650                 6.0788                 1.0384
 Frc consts  --      9.5758                 9.8717                 5.5617
 IR Inten    --     53.4174                47.8876                37.8612

                     43                     44                     45
                      A                      A                      A
 Frequencies --   3019.7228              3056.2934              3063.5491
 Red. masses --      1.0382                 1.0998                 1.0995
 Frc consts  --      5.5778                 6.0530                 6.0800
 IR Inten    --     32.2719                27.7630                11.7622

                     46                     47                     48
                      A                      A                      A
 Frequencies --   3098.8447              3105.9775              3147.3065
 Red. masses --      1.0988                 1.0992                 1.0873
 Frc consts  --      6.2167                 6.2480                 6.3455
 IR Inten    --     24.1465                16.2447                16.6101

                     49                     50                     51
                      A                      A                      A
 Frequencies --   3165.4451              3177.5022              3836.4862
 Red. masses --      1.0941                 1.0907                 1.0662
 Frc consts  --      6.4592                 6.4882                 9.2459
 IR Inten    --     19.5988                 5.9311                63.5650

 - Thermochemistry -
 -------------------
 Temperature   298.150 Kelvin.  Pressure   1.00000 Atm.
 Atom     1 has atomic number  6 and mass  12.00000

 Molecular mass:   122.07317 amu.
 Principal axes and moments of inertia in atomic units:
                           1         2         3
     Eigenvalues --   605.519731389.346161972.60975
           X            0.99976  -0.02184   0.00000
           Y            0.02184   0.99976   0.00000
           Z            0.00000   0.00000   1.00000
 This molecule is an asymmetric top.
 Rotational symmetry number  1.
 Warning -- assumption of classical behavior for rotation
           may cause significant error
 Rotational temperatures (Kelvin)      0.14304     0.06234     0.04391
 Rotational constants (GHZ):           2.98048     1.29899     0.91490
 Zero-point vibrational energy     417499.0 (Joules/Mol)
                                   99.78465 (Kcal/Mol)
 Warning -- explicit consideration of  13 degrees of freedom as
           vibrations may cause significant error
 Vibrational temperatures:    185.19   202.07   242.44   310.35   416.42
          (Kelvin)            432.47   461.35   479.53   654.73   657.11
                              709.89   807.12   830.62   998.62  1059.21
                             1088.53  1156.52  1264.62  1341.67  1383.19
                             1460.64  1470.21  1502.38  1530.78  1632.45
                             1691.48  1725.83  1757.81  1850.02  1891.36
                             1929.00  2032.52  2048.61  2106.81  2129.55
                             2150.37  2154.15  2165.04  2202.42  2336.08
                             2388.66  4337.95  4344.70  4397.32  4407.76
                             4458.54  4468.80  4528.27  4554.36  4571.71
                             5519.84

 Zero-point correction=                           0.159017 (Hartree/Particle)
 Thermal correction to Energy=                    0.167884
 Thermal correction to Enthalpy=                  0.168828
 Thermal correction to Gibbs Free Energy=         0.125963
 Sum of electronic and zero-point Energies=           -386.053539
 Sum of electronic and thermal Energies=              -386.044672
 Sum of electronic and thermal Enthalpies=            -386.043728
 Sum of electronic and thermal Free Energies=         -386.086593

                     E (Thermal)             CV                S
                      KCal/Mol        Cal/Mol-Kelvin    Cal/Mol-Kelvin
 Total                  105.349             34.044             90.217
 Electronic               0.000              0.000              0.000
 Translational            0.889              2.981             40.313
 Rotational               0.889              2.981             28.897
 Vibrational            103.571             28.083             21.008
 Vibration     1          0.611              1.925              2.965
 Vibration     2          0.615              1.913              2.798
 Vibration     3          0.625              1.881              2.452
 Vibration     4          0.645              1.817              1.995
 Vibration     5          0.686              1.693              1.477
 Vibration     6          0.693              1.673              1.414
 Vibration     7          0.706              1.634              1.307
 Vibration     8          0.715              1.609              1.244
 Vibration     9          0.813              1.350              0.781
 Vibration    10          0.815              1.346              0.776
 Vibration    11          0.849              1.265              0.675
 Vibration    12          0.917              1.116              0.522
 Vibration    13          0.934              1.080              0.490

 Optimization completed.
    -- Stationary point found.
 Normal termination of Gaussian 09 at Tue Apr 23 11:51:57 2024.
