 Gaussian 09, Revision D.01,
 Gaussian 09:  ES64L-G09RevD.01 24-Apr-2013

 ----------------------------------------------------------------------
 # opt freq b3lyp/6-311+g(d,p) geom=connectivity pop=(hirshfeld,chelpg,
 mbs,npa)
 ----------------------------------------------------------------------

 -------------------
 Title Card Required
 -------------------
 Symbolic Z-matrix:
 Charge =  0 Multiplicity = 1

 SCF Done:  E(RB3LYP) =  -356.610430962     A.U. after   14 cycles
 SCF Done:  E(RB3LYP) =  -356.640683658     A.U. after   13 cycles
 SCF Done:  E(RB3LYP) =  -356.650128211     A.U. after   13 cycles
 SCF Done:  E(RB3LYP) =  -356.651146539     A.U. after   12 cycles
 SCF Done:  E(RB3LYP) =  -356.651486151     A.U. after   12 cycles
 SCF Done:  E(RB3LYP) =  -356.651495853     A.U. after   11 cycles
 SCF Done:  E(RB3LYP) =  -356.651496975     A.U. after   10 cycles
 Optimization completed.
    -- Stationary point found.
 Normal termination of Gaussian 09 at Mon Nov  1 16:52:50 2021.

 ----------------------------------------------------------------------
 #N Geom=AllCheck Guess=TCheck SCRF=Check GenChk RB3LYP/6-311+G(d,p) Fr
 eq
 ----------------------------------------------------------------------

 Structure from the checkpoint file:  "Chart2_3.chk"
 -------------------
 Title Card Required
 -------------------
 Charge =  0 Multiplicity = 1

                         Standard orientation:
 ---------------------------------------------------------------------
 Center     Atomic      Atomic             Coordinates (Angstroms)
 Number     Number       Type             X           Y           Z
 ---------------------------------------------------------------------
      1          6           0       -0.537671   -0.000080    0.000026
      2          6           0        1.388867   -1.184868   -0.000003
      3          6           0        2.118918   -0.000012   -0.000010
      4          6           0        1.388939    1.184833   -0.000010
      5          1           0        1.879465   -2.153432   -0.000002
      6          1           0        3.201392    0.000108   -0.000013
      7          1           0        1.879587    2.153381   -0.000013
      8          7           0        0.054336    1.197794    0.000013
      9          7           0        0.054439   -1.197675    0.000005
     10          6           0       -1.985055   -0.000064    0.000001
     11          7           0       -3.137980    0.000036   -0.000018
 ---------------------------------------------------------------------

 SCF Done:  E(RB3LYP) =  -356.651496975     A.U. after    1 cycles

 The electronic state is 1-A.
 Alpha  occ. eigenvalues --  -14.36216 -14.36214 -14.33366 -10.30663 -10.26371
 Alpha  occ. eigenvalues --  -10.26371 -10.23118 -10.22565  -1.03851  -0.93758
 Alpha  occ. eigenvalues --   -0.92759  -0.84329  -0.72608  -0.70395  -0.60990
 Alpha  occ. eigenvalues --   -0.56388  -0.52955  -0.47906  -0.46962  -0.46119
 Alpha  occ. eigenvalues --   -0.38517  -0.37988  -0.35988  -0.35918  -0.35123
 Alpha  occ. eigenvalues --   -0.31641  -0.29528
 Alpha virt. eigenvalues --   -0.09500  -0.08511  -0.01543   0.00865   0.01681
 Alpha virt. eigenvalues --    0.01867   0.02903   0.03875   0.04176   0.04837
 Alpha virt. eigenvalues --    0.05591   0.07768   0.07899   0.08760   0.09503

 Mulliken charges:
               1
     1  C    0.779339
     2  C    0.030311
     3  C   -0.046175
     4  C    0.030245
     5  H    0.150319
     6  H    0.150548
     7  H    0.150327
     8  N   -0.039504
     9  N   -0.039431
    10  C   -0.982897
    11  N   -0.183081
 Sum of Mulliken charges =   0.00000

 Dipole moment (field-independent basis, Debye):
    X=              6.5015    Y=             -0.0006    Z=              0.0000  Tot=              6.5015
 Quadrupole moment (field-independent basis, Debye-Ang):
   XX=            -49.9342   YY=            -45.9934   ZZ=            -45.6174
   XY=              0.0011   XZ=             -0.0001   YZ=              0.0000

  Exact polarizability: 108.724  -0.001  69.927   0.000   0.000  39.922
 Approx polarizability: 174.964  -0.003 118.689   0.000   0.000  59.049

 ESP charges:
               1
     1  C    0.860486
     2  C    0.542207
     3  C   -0.496603
     4  C    0.542055
     5  H    0.023121
     6  H    0.156813
     7  H    0.023170
     8  N   -0.731732
     9  N   -0.731844
    10  C    0.207869
    11  N   -0.395542
 Sum of ESP charges =   0.00000

 Summary of Natural Population Analysis:

                                       Natural Population
                Natural  -----------------------------------------------
    Atom  No    Charge         Core      Valence    Rydberg      Total
 -----------------------------------------------------------------------
      C    1    0.30551      1.99903     3.65961    0.03585     5.69449
      C    2    0.09260      1.99922     3.88087    0.02730     5.90740
      C    3   -0.26416      1.99915     4.24976    0.01525     6.26416
      C    4    0.09255      1.99922     3.88093    0.02730     5.90745
      H    5    0.20253      0.00000     0.79597    0.00150     0.79747
      H    6    0.22706      0.00000     0.77143    0.00152     0.77294
      H    7    0.20254      0.00000     0.79596    0.00149     0.79746
      N    8   -0.42777      1.99937     5.41021    0.01819     7.42777
      N    9   -0.42780      1.99937     5.41023    0.01820     7.42780
      C   10    0.26973      1.99921     3.69640    0.03466     5.73027
      N   11   -0.27280      1.99958     5.25235    0.02086     7.27280
 =======================================================================
   * Total *    0.00000     15.99416    37.80372    0.20212    54.00000

                      1                      2                      3
                      A                      A                      A
 Frequencies --    134.3426               178.9002               354.9614
 Red. masses --      6.9440                 8.9044                 5.3448
 Frc consts  --      0.0738                 0.1679                 0.3968
 IR Inten    --      0.1174                 0.5803                 5.7170

                      4                      5                      6
                      A                      A                      A
 Frequencies --    405.9037               508.8757               570.6498
 Red. masses --      4.2122                10.8217                 3.5456
 Frc consts  --      0.4089                 1.6511                 0.6803
 IR Inten    --      0.0000                 0.2360                 6.7786

                      7                      8                      9
                      A                      A                      A
 Frequencies --    572.9987               656.5852               812.6817
 Red. masses --     10.0972                 8.0002                 7.3103
 Frc consts  --      1.9533                 2.0320                 2.8446
 IR Inten    --      8.8935                 3.9695                 7.2874

                     10                     11                     12
                      A                      A                      A
 Frequencies --    818.1949               833.0435              1004.2223
 Red. masses --      2.8568                 1.7843                 1.3700
 Frc consts  --      1.1268                 0.7295                 0.8140
 IR Inten    --      0.0962                40.6885                 0.0000

                     13                     14                     15
                      A                      A                      A
 Frequencies --   1008.5921              1015.3098              1089.8684
 Red. masses --      9.8589                 1.4296                 2.5333
 Frc consts  --      5.9089                 0.8683                 1.7729
 IR Inten    --      1.8178                 0.1849                 0.0000

                     16                     17                     18
                      A                      A                      A
 Frequencies --   1119.0634              1239.1032              1290.2799
 Red. masses --      1.4382                 9.1407                 3.3541
 Frc consts  --      1.0611                 8.2688                 3.2899
 IR Inten    --      0.7649                 0.0502                13.2998

                     19                     20                     21
                      A                      A                      A
 Frequencies --   1290.7604              1440.8312              1458.8979
 Red. masses --      1.6947                 2.4868                 1.9237
 Frc consts  --      1.6635                 3.0417                 2.4123
 IR Inten    --      9.4148               117.2309                 0.7527

                     22                     23                     24
                      A                      A                      A
 Frequencies --   1596.2565              1604.3632              2357.1346
 Red. masses --      6.0723                 5.0436                12.6854
 Frc consts  --      9.1161                 7.6488                41.5264
 IR Inten    --     93.4445                54.8132                 0.5567

                     25                     26                     27
                      A                      A                      A
 Frequencies --   3164.9280              3167.8698              3206.1661
 Red. masses --      1.0903                 1.0925                 1.0965
 Frc consts  --      6.4344                 6.4594                 6.6412
 IR Inten    --     10.5244                 9.1066                 4.5209

 - Thermochemistry -
 -------------------
 Temperature   298.150 Kelvin.  Pressure   1.00000 Atm.
 Atom     1 has atomic number  6 and mass  12.00000

 Molecular mass:   105.03270 amu.
 Principal axes and moments of inertia in atomic units:
                           1         2         3
     Eigenvalues --   297.171631092.366131389.53776
           X            1.00000   0.00000   0.00000
           Y            0.00000   1.00000   0.00000
           Z            0.00000   0.00000   1.00000
 This molecule is an asymmetric top.
 Rotational symmetry number  1.
 Rotational temperatures (Kelvin)      0.29146     0.07929     0.06233
 Rotational constants (GHZ):           6.07306     1.65214     1.29881
 Zero-point vibrational energy     196790.4 (Joules/Mol)
                                   47.03403 (Kcal/Mol)
 Warning -- explicit consideration of   7 degrees of freedom as
           vibrations may cause significant error
 Vibrational temperatures:    193.29   257.40   510.71   584.00   732.16
          (Kelvin)            821.04   824.42   944.68  1169.27  1177.20
                             1198.56  1444.85  1451.14  1460.80  1568.08
                             1610.08  1782.79  1856.42  1857.11  2073.03
                             2099.03  2296.65  2308.32  3391.39  4553.62
                             4557.85  4612.95

 Zero-point correction=                           0.074954 (Hartree/Particle)
 Thermal correction to Energy=                    0.080842
 Thermal correction to Enthalpy=                  0.081786
 Thermal correction to Gibbs Free Energy=         0.044784
 Sum of electronic and zero-point Energies=           -356.576543
 Sum of electronic and thermal Energies=              -356.570655
 Sum of electronic and thermal Enthalpies=            -356.569711
 Sum of electronic and thermal Free Energies=         -356.606713

                     E (Thermal)             CV                S
                      KCal/Mol        Cal/Mol-Kelvin    Cal/Mol-Kelvin
 Total                   50.729             21.377             77.877
 Electronic               0.000              0.000              0.000
 Translational            0.889              2.981             39.864
 Rotational               0.889              2.981             27.603
 Vibrational             48.952             15.415             10.410
 Vibration     1          0.613              1.919              2.883
 Vibration     2          0.629              1.868              2.340
 Vibration     3          0.731              1.565              1.144
 Vibration     4          0.771              1.457              0.941
 Vibration     5          0.864              1.230              0.636
 Vibration     6          0.927              1.095              0.503
 Vibration     7          0.929              1.090              0.499

 Optimization completed.
    -- Stationary point found.
 Normal termination of Gaussian 09 at Mon Nov  1 16:53:49 2021.
