 Gaussian 09, Revision D.01,
 Gaussian 09:  ES64L-G09RevD.01 24-Apr-2013

 ----------------------------------------------------------------------
 # opt freq=noraman b3lyp/6-311+g(d,p) pop=(npa,hirshfeld,chelpg,mbs) g
 eom=connectivity
 ----------------------------------------------------------------------

 -------------------
 Title Card Required
 -------------------
 Symbolic Z-matrix:
 Charge =  0 Multiplicity = 1

 SCF Done:  E(RB3LYP) =  -461.419092967     A.U. after   15 cycles
 SCF Done:  E(RB3LYP) =  -461.429038817     A.U. after   13 cycles
 SCF Done:  E(RB3LYP) =  -461.432330569     A.U. after   13 cycles
 SCF Done:  E(RB3LYP) =  -461.434461515     A.U. after   13 cycles
 SCF Done:  E(RB3LYP) =  -461.438382370     A.U. after   15 cycles
 SCF Done:  E(RB3LYP) =  -461.441219302     A.U. after   14 cycles
 SCF Done:  E(RB3LYP) =  -461.443283838     A.U. after   13 cycles
 SCF Done:  E(RB3LYP) =  -461.443580819     A.U. after   12 cycles
 SCF Done:  E(RB3LYP) =  -461.443619222     A.U. after   11 cycles
 SCF Done:  E(RB3LYP) =  -461.443632279     A.U. after   10 cycles
 SCF Done:  E(RB3LYP) =  -461.443642477     A.U. after   11 cycles
 SCF Done:  E(RB3LYP) =  -461.443645331     A.U. after   10 cycles
 SCF Done:  E(RB3LYP) =  -461.443646539     A.U. after    9 cycles
 SCF Done:  E(RB3LYP) =  -461.443646945     A.U. after    8 cycles
 SCF Done:  E(RB3LYP) =  -461.443647374     A.U. after    8 cycles
 SCF Done:  E(RB3LYP) =  -461.443647869     A.U. after    9 cycles
 SCF Done:  E(RB3LYP) =  -461.443648218     A.U. after    8 cycles
 SCF Done:  E(RB3LYP) =  -461.443648296     A.U. after    8 cycles
 SCF Done:  E(RB3LYP) =  -461.443648309     A.U. after    7 cycles
 Optimization completed on the basis of negligible forces.
    -- Stationary point found.
 Normal termination of Gaussian 09 at Tue Apr 23 11:52:21 2024.

 ----------------------------------------------------------------------
 #N Geom=AllCheck Guess=TCheck SCRF=Check GenChk RB3LYP/6-311+G(d,p) Fr
 eq
 ----------------------------------------------------------------------

 Structure from the checkpoint file:  "25.chk"
 -------------------
 Title Card Required
 -------------------
 Charge =  0 Multiplicity = 1

                         Standard orientation:
 ---------------------------------------------------------------------
 Center     Atomic      Atomic             Coordinates (Angstroms)
 Number     Number       Type             X           Y           Z
 ---------------------------------------------------------------------
      1          6           0       -1.731793   -0.359741   -0.000324
      2          6           0       -0.454910   -0.946125   -0.000151
      3          6           0        0.686747   -0.155427    0.000097
      4          6           0        0.579528    1.247478    0.000140
      5          6           0       -0.676387    1.830866   -0.000135
      6          6           0       -1.822146    1.029968   -0.000397
      7          1           0       -0.368076   -2.026080   -0.000264
      8          1           0       -0.747820    2.912050   -0.000271
      9          1           0       -2.797470    1.504219   -0.000707
     10          8           0        1.701708    2.024646    0.000259
     11          1           0        2.467463    1.435045    0.000326
     12          8           0        1.983247   -0.613060    0.000144
     13          6           0        2.211187   -2.016347   -0.000216
     14          1           0        1.788049   -2.484579   -0.894934
     15          1           0        3.292230   -2.145473   -0.000222
     16          1           0        1.788003   -2.485058    0.894229
     17          6           0       -2.964598   -1.232733    0.000410
     18          1           0       -2.992598   -1.888340   -0.876030
     19          1           0       -3.001607   -1.874031    0.887129
     20          1           0       -3.873600   -0.628081   -0.009022
 ---------------------------------------------------------------------

 SCF Done:  E(RB3LYP) =  -461.443648309     A.U. after    1 cycles

 The electronic state is 1-A.
 Alpha  occ. eigenvalues --  -19.16977 -19.14845 -10.23777 -10.23667 -10.23020
 Alpha  occ. eigenvalues --  -10.18030 -10.17557 -10.16937 -10.16805 -10.16784
 Alpha  occ. eigenvalues --   -1.08781  -1.05434  -0.85780  -0.77544  -0.75854
 Alpha  occ. eigenvalues --   -0.71699  -0.68233  -0.61446  -0.59483  -0.55895
 Alpha  occ. eigenvalues --   -0.52540  -0.49447  -0.48525  -0.45366  -0.45092
 Alpha  occ. eigenvalues --   -0.43302  -0.42506  -0.40928  -0.40550  -0.38280
 Alpha  occ. eigenvalues --   -0.37635  -0.35174  -0.35137  -0.34473  -0.32041
 Alpha  occ. eigenvalues --   -0.24453  -0.21286
 Alpha virt. eigenvalues --   -0.01071  -0.00332   0.00481   0.00571   0.01369
 Alpha virt. eigenvalues --    0.02665   0.03792   0.04129   0.05063   0.05805
 Alpha virt. eigenvalues --    0.06011   0.06333   0.07219   0.08170   0.08905

 Mulliken charges:
               1
     1  C    0.311567
     2  C    0.478176
     3  C   -0.107101
     4  C   -0.481477
     5  C    0.445561
     6  C   -0.846571
     7  H    0.114792
     8  H    0.125910
     9  H    0.113078
    10  O   -0.293828
    11  H    0.276671
    12  O   -0.272606
    13  C   -0.205989
    14  H    0.150038
    15  H    0.159623
    16  H    0.150061
    17  C   -0.559435
    18  H    0.151641
    19  H    0.152668
    20  H    0.137218
 Sum of Mulliken charges =   0.00000

 Dipole moment (field-independent basis, Debye):
    X=              0.3185    Y=             -3.0034    Z=              0.0005  Tot=              3.0202
 Quadrupole moment (field-independent basis, Debye-Ang):
   XX=            -53.4870   YY=            -57.5959   ZZ=            -63.2719
   XY=             -5.5050   XZ=             -0.0021   YZ=             -0.0008

  Exact polarizability: 128.526  -0.011 115.687  -0.008  -0.010  64.037
 Approx polarizability: 190.149   3.179 178.299  -0.005  -0.014  96.238

 ESP charges:
               1
     1  C    0.174882
     2  C   -0.349952
     3  C    0.249736
     4  C    0.193464
     5  C   -0.134750
     6  C   -0.265390
     7  H    0.170070
     8  H    0.140746
     9  H    0.126863
    10  O   -0.542595
    11  H    0.376543
    12  O   -0.326790
    13  C    0.083971
    14  H    0.032365
    15  H    0.059924
    16  H    0.032550
    17  C   -0.176630
    18  H    0.046818
    19  H    0.046338
    20  H    0.061836
 Sum of ESP charges =   0.00000

 Summary of Natural Population Analysis:

                                       Natural Population
                Natural  -----------------------------------------------
    Atom  No    Charge         Core      Valence    Rydberg      Total
 -----------------------------------------------------------------------
      C    1   -0.04687      1.99907     4.03230    0.01549     6.04687
      C    2   -0.27828      1.99898     4.26443    0.01487     6.27828
      C    3    0.26811      1.99871     3.71171    0.02146     5.73189
      C    4    0.27541      1.99870     3.70093    0.02495     5.72459
      C    5   -0.23881      1.99908     4.22188    0.01784     6.23881
      C    6   -0.21281      1.99906     4.19720    0.01654     6.21281
      H    7    0.20801      0.00000     0.79007    0.00192     0.79199
      H    8    0.21857      0.00000     0.77956    0.00187     0.78143
      H    9    0.20355      0.00000     0.79484    0.00162     0.79645
      O   10   -0.67911      1.99976     6.66580    0.01355     8.67911
      H   11    0.48555      0.00000     0.50994    0.00451     0.51445
      O   12   -0.57134      1.99971     6.55303    0.01860     8.57134
      C   13   -0.20341      1.99927     4.18796    0.01619     6.20341
      H   14    0.17248      0.00000     0.82511    0.00240     0.82752
      H   15    0.19155      0.00000     0.80739    0.00106     0.80845
      H   16    0.17248      0.00000     0.82512    0.00240     0.82752
      C   17   -0.58530      1.99931     4.57639    0.00960     6.58530
      H   18    0.20685      0.00000     0.79171    0.00144     0.79315
      H   19    0.20697      0.00000     0.79159    0.00144     0.79303
      H   20    0.20638      0.00000     0.79239    0.00123     0.79362
 =======================================================================
   * Total *    0.00000     19.99165    53.81936    0.18899    74.00000

                      1                      2                      3
                      A                      A                      A
 Frequencies --     17.6377                76.5688               145.4610
 Red. masses --      1.0403                 3.1832                 4.1162
 Frc consts  --      0.0002                 0.0110                 0.0513
 IR Inten    --      0.0085                 4.3730                 1.0271

                      4                      5                      6
                      A                      A                      A
 Frequencies --    196.0597               200.7056               261.8509
 Red. masses --      1.7076                 3.0982                 1.6503
 Frc consts  --      0.0387                 0.0735                 0.0667
 IR Inten    --      0.0888                 0.8448                 0.0378

                      7                      8                      9
                      A                      A                      A
 Frequencies --    301.9004               355.4587               364.6419
 Red. masses --      3.7417                 4.7719                 3.3983
 Frc consts  --      0.2009                 0.3552                 0.2662
 IR Inten    --      3.3888                 1.3408                 3.2475

                     10                     11                     12
                      A                      A                      A
 Frequencies --    420.8709               457.4516               468.3778
 Red. masses --      1.1287                 2.7056                 6.1060
 Frc consts  --      0.1178                 0.3336                 0.7892
 IR Inten    --    103.8376                 1.8876                 0.6300

                     13                     14                     15
                      A                      A                      A
 Frequencies --    550.1593               561.5696               595.5317
 Red. masses --      4.4395                 4.7903                 3.5796
 Frc consts  --      0.7917                 0.8901                 0.7480
 IR Inten    --      3.3677                14.6121                11.2250

                     16                     17                     18
                      A                      A                      A
 Frequencies --    720.5303               725.5973               805.0850
 Red. masses --      5.7525                 3.9836                 4.9709
 Frc consts  --      1.7596                 1.2357                 1.8983
 IR Inten    --      1.3872                 0.1851                29.9303

                     19                     20                     21
                      A                      A                      A
 Frequencies --    824.3367               855.0730               930.6095
 Red. masses --      1.3720                 1.3931                 3.6317
 Frc consts  --      0.5493                 0.6001                 1.8531
 IR Inten    --     37.2699                11.8949                13.1029

                     22                     23                     24
                      A                      A                      A
 Frequencies --    942.3580              1019.8734              1058.5387
 Red. masses --      1.3247                 1.4955                 1.4813
 Frc consts  --      0.6931                 0.9165                 0.9779
 IR Inten    --      1.6483                 0.2797                 2.5674

                     25                     26                     27
                      A                      A                      A
 Frequencies --   1060.9807              1144.0543              1171.5619
 Red. masses --      4.3460                 1.4730                 2.2821
 Frc consts  --      2.8824                 1.1359                 1.8455
 IR Inten    --     51.1066                26.0215                65.4094

                     28                     29                     30
                      A                      A                      A
 Frequencies --   1172.3732              1207.4983              1228.6153
 Red. masses --      1.2692                 1.5755                 1.3321
 Frc consts  --      1.0278                 1.3535                 1.1847
 IR Inten    --      0.5575                20.6363                54.1261

                     31                     32                     33
                      A                      A                      A
 Frequencies --   1260.1144              1290.7693              1317.7848
 Red. masses --      3.0500                 5.5525                 1.6773
 Frc consts  --      2.8535                 5.4505                 1.7161
 IR Inten    --    139.4492               215.5890                 6.1601

                     34                     35                     36
                      A                      A                      A
 Frequencies --   1400.6140              1414.9778              1450.5249
 Red. masses --      2.3548                 1.2418                 2.4274
 Frc consts  --      2.7217                 1.4649                 3.0091
 IR Inten    --     50.7960                 0.0953                16.7125

                     37                     38                     39
                      A                      A                      A
 Frequencies --   1482.7191              1486.3945              1491.8219
 Red. masses --      1.2485                 1.0434                 1.0451
 Frc consts  --      1.6172                 1.3582                 1.3703
 IR Inten    --      6.7898                 6.6453                10.7045

                     40                     41                     42
                      A                      A                      A
 Frequencies --   1502.6479              1506.5975              1544.0569
 Red. masses --      1.1706                 1.0818                 3.2165
 Frc consts  --      1.5573                 1.4467                 4.5181
 IR Inten    --      8.4313                60.2577               199.9220

                     43                     44                     45
                      A                      A                      A
 Frequencies --   1644.3832              1651.1596              3010.4514
 Red. masses --      5.8562                 6.4962                 1.0337
 Frc consts  --      9.3298                10.4349                 5.5198
 IR Inten    --      8.9371                16.8603                48.1874

                     46                     47                     48
                      A                      A                      A
 Frequencies --   3017.9359              3063.1500              3070.7328
 Red. masses --      1.0376                 1.1005                 1.1065
 Frc consts  --      5.5682                 6.0838                 6.1470
 IR Inten    --     44.7565                20.2734                34.5530

                     49                     50                     51
                      A                      A                      A
 Frequencies --   3099.0266              3135.5622              3167.6325
 Red. masses --      1.0993                 1.1001                 1.0885
 Frc consts  --      6.2205                 6.3725                 6.4350
 IR Inten    --     18.3329                20.0384                12.6435

                     52                     53                     54
                      A                      A                      A
 Frequencies --   3183.2655              3191.9842              3782.5954
 Red. masses --      1.0893                 1.0935                 1.0652
 Frc consts  --      6.5034                 6.5641                 8.9795
 IR Inten    --      9.5773                 5.1825               104.4762

 - Thermochemistry -
 -------------------
 Temperature   298.150 Kelvin.  Pressure   1.00000 Atm.
 Atom     1 has atomic number  6 and mass  12.00000

 Molecular mass:   138.06808 amu.
 Principal axes and moments of inertia in atomic units:
                           1         2         3
     Eigenvalues --   953.945731554.557552485.79306
           X            0.99971  -0.02410  -0.00001
           Y            0.02410   0.99971  -0.00001
           Z            0.00001   0.00001   1.00000
 This molecule is an asymmetric top.
 Rotational symmetry number  1.
 Warning -- assumption of classical behavior for rotation
           may cause significant error
 Rotational temperatures (Kelvin)      0.09080     0.05572     0.03484
 Rotational constants (GHZ):           1.89187     1.16094     0.72602
 Zero-point vibrational energy     430704.9 (Joules/Mol)
                                  102.94094 (Kcal/Mol)
 Warning -- explicit consideration of  15 degrees of freedom as
           vibrations may cause significant error
 Vibrational temperatures:     25.38   110.17   209.29   282.09   288.77
          (Kelvin)            376.74   434.37   511.43   524.64   605.54
                              658.17   673.89   791.56   807.97   856.84
                             1036.68  1043.97  1158.34  1186.04  1230.26
                             1338.94  1355.84  1467.37  1523.00  1526.51
                             1646.04  1685.61  1686.78  1737.32  1767.70
                             1813.02  1857.13  1896.00  2015.17  2035.83
                             2086.98  2133.30  2138.59  2146.40  2161.97
                             2167.66  2221.55  2365.90  2375.65  4331.36
                             4342.13  4407.18  4418.09  4458.80  4511.37
                             4557.51  4580.00  4592.55  5442.30

 Zero-point correction=                           0.164047 (Hartree/Particle)
 Thermal correction to Energy=                    0.174047
 Thermal correction to Enthalpy=                  0.174991
 Thermal correction to Gibbs Free Energy=         0.127708
 Sum of electronic and zero-point Energies=           -461.279601
 Sum of electronic and thermal Energies=              -461.269601
 Sum of electronic and thermal Enthalpies=            -461.268657
 Sum of electronic and thermal Free Energies=         -461.315940

                     E (Thermal)             CV                S
                      KCal/Mol        Cal/Mol-Kelvin    Cal/Mol-Kelvin
 Total                  109.216             37.065             99.517
 Electronic               0.000              0.000              0.000
 Translational            0.889              2.981             40.680
 Rotational               0.889              2.981             29.690
 Vibrational            107.439             31.103             29.147
 Vibration     1          0.593              1.986              6.884
 Vibration     2          0.599              1.965              3.977
 Vibration     3          0.617              1.908              2.731
 Vibration     4          0.636              1.845              2.170
 Vibration     5          0.638              1.839              2.127
 Vibration     6          0.669              1.743              1.649
 Vibration     7          0.694              1.670              1.406
 Vibration     8          0.731              1.564              1.142
 Vibration     9          0.738              1.545              1.102
 Vibration    10          0.783              1.425              0.889
 Vibration    11          0.816              1.344              0.774
 Vibration    12          0.826              1.320              0.742
 Vibration    13          0.905              1.139              0.544
 Vibration    14          0.917              1.114              0.521
 Vibration    15          0.953              1.041              0.457

 Optimization completed on the basis of negligible forces.
    -- Stationary point found.
 Normal termination of Gaussian 09 at Tue Apr 23 11:54:29 2024.
