 Gaussian 09, Revision D.01,
 Gaussian 09:  ES64L-G09RevD.01 24-Apr-2013

 ---------------------------------------------------------------------
 # b3lyp/6-311+g(d,p) geom=connectivity pop=(hirshfeld,chelpg,mbs,npa)
 ---------------------------------------------------------------------

 --------
 Table4_7
 --------
 Symbolic Z-matrix:
 Charge =  0 Multiplicity = 1

                         Standard orientation:
 ---------------------------------------------------------------------
 Center     Atomic      Atomic             Coordinates (Angstroms)
 Number     Number       Type             X           Y           Z
 ---------------------------------------------------------------------
      1          6           0       -0.888278   -3.667467    0.000000
      2          6           0       -0.887504   -2.968203    1.206082
      3          6           0       -0.887504   -1.575105    1.203608
      4          6           0       -0.887144   -0.865180    0.000000
      5          6           0       -0.887504   -1.575105   -1.203608
      6          6           0       -0.887504   -2.968203   -1.206082
      7          1           0       -0.890885   -4.751761    0.000000
      8          1           0       -0.887872   -3.507183    2.146916
      9          1           0       -0.883344   -1.032673    2.143440
     10          1           0       -0.883344   -1.032673   -2.143440
     11          1           0       -0.887872   -3.507183   -2.146916
     12          6           0       -0.858471    0.639874    0.000000
     13          1           0       -1.375195    1.031035    0.888427
     14          1           0       -1.375195    1.031035   -0.888427
     15          8           0        0.499778    1.078871    0.000000
     16          6           0        0.612195    2.471932    0.000000
     17          1           0        0.127529    2.901788    0.898883
     18          1           0        0.127529    2.901788   -0.898883
     19          8           0        1.979841    2.751884    0.000000
     20          6           0        2.250701    4.141237    0.000000
     21          1           0        1.841649    4.633399    0.893455
     22          1           0        3.334477    4.250309    0.000000
     23          1           0        1.841649    4.633399   -0.893455
 ---------------------------------------------------------------------

 SCF Done:  E(RB3LYP) =  -500.738116744     A.U. after   13 cycles

 The electronic state is 1-A'.
 Alpha  occ. eigenvalues --  -19.13493 -19.13423 -10.27230 -10.23067 -10.22102
 Alpha  occ. eigenvalues --  -10.18611 -10.17920 -10.17897 -10.17882 -10.17833
 Alpha  occ. eigenvalues --  -10.17818  -1.07944  -1.02436  -0.86445  -0.78161
 Alpha  occ. eigenvalues --   -0.75250  -0.72800  -0.67836  -0.63749  -0.61376
 Alpha  occ. eigenvalues --   -0.59236  -0.52791  -0.51603  -0.51226  -0.50222
 Alpha  occ. eigenvalues --   -0.47479  -0.46151  -0.43847  -0.43050  -0.42745
 Alpha  occ. eigenvalues --   -0.42015  -0.40024  -0.37211  -0.36654  -0.34924
 Alpha  occ. eigenvalues --   -0.34401  -0.33229  -0.28371  -0.26517  -0.25857
 Alpha  occ. eigenvalues --   -0.25822
 Alpha virt. eigenvalues --   -0.02358  -0.01730  -0.00057   0.00733   0.01818
 Alpha virt. eigenvalues --    0.02068   0.03258   0.03676   0.03812   0.04776
 Alpha virt. eigenvalues --    0.05528   0.05640   0.06582   0.06802   0.07540

 Mulliken charges:
               1
     1  C   -0.134573
     2  C   -0.121920
     3  C   -0.357959
     4  C    0.969419
     5  C   -0.357959
     6  C   -0.121920
     7  H    0.126017
     8  H    0.126314
     9  H    0.117615
    10  H    0.117615
    11  H    0.126314
    12  C   -0.843224
    13  H    0.133263
    14  H    0.133263
    15  O   -0.111183
    16  C   -0.021316
    17  H    0.110913
    18  H    0.110913
    19  O   -0.212701
    20  C   -0.192299
    21  H    0.124816
    22  H    0.153778
    23  H    0.124816
 Sum of Mulliken charges =   0.00000

 Dipole moment (field-independent basis, Debye):
    X=             -1.7759    Y=              1.6018    Z=              0.0000  Tot=              2.3916
 Quadrupole moment (field-independent basis, Debye-Ang):
   XX=            -72.1619   YY=            -51.2090   ZZ=            -62.3063
   XY=              1.3890   XZ=              0.0000   YZ=              0.0000

 ESP charges:
               1
     1  C   -0.064560
     2  C   -0.077850
     3  C   -0.174607
     4  C    0.148922
     5  C   -0.174607
     6  C   -0.077850
     7  H    0.078168
     8  H    0.080663
     9  H    0.126964
    10  H    0.126964
    11  H    0.080663
    12  C    0.094642
    13  H   -0.001536
    14  H   -0.001536
    15  O   -0.390100
    16  C    0.480530
    17  H   -0.001427
    18  H   -0.001427
    19  O   -0.462870
    20  C    0.205535
    21  H   -0.021952
    22  H    0.049225
    23  H   -0.021952
 Sum of ESP charges =   0.00000

 Summary of Natural Population Analysis:

                                       Natural Population
                Natural  -----------------------------------------------
    Atom  No    Charge         Core      Valence    Rydberg      Total
 -----------------------------------------------------------------------
      C    1   -0.19975      1.99916     4.18265    0.01794     6.19975
      C    2   -0.20111      1.99916     4.18371    0.01824     6.20111
      C    3   -0.18515      1.99905     4.16831    0.01779     6.18515
      C    4   -0.05853      1.99900     4.04102    0.01850     6.05853
      C    5   -0.18515      1.99905     4.16831    0.01779     6.18515
      C    6   -0.20111      1.99916     4.18371    0.01824     6.20111
      H    7    0.20614      0.00000     0.79249    0.00137     0.79386
      H    8    0.20620      0.00000     0.79225    0.00155     0.79380
      H    9    0.20589      0.00000     0.79246    0.00165     0.79411
      H   10    0.20589      0.00000     0.79246    0.00165     0.79411
      H   11    0.20620      0.00000     0.79225    0.00155     0.79380
      C   12   -0.03792      1.99911     4.01730    0.02151     6.03792
      H   13    0.16878      0.00000     0.82831    0.00291     0.83122
      H   14    0.16878      0.00000     0.82831    0.00291     0.83122
      O   15   -0.58276      1.99973     6.56070    0.02233     8.58276
      C   16    0.31486      1.99924     3.65950    0.02640     5.68514
      H   17    0.12286      0.00000     0.87370    0.00344     0.87714
      H   18    0.12286      0.00000     0.87370    0.00344     0.87714
      O   19   -0.57812      1.99974     6.55549    0.02288     8.57812
      C   20   -0.20694      1.99929     4.19249    0.01516     6.20694
      H   21    0.15856      0.00000     0.83922    0.00221     0.84144
      H   22    0.19094      0.00000     0.80789    0.00117     0.80906
      H   23    0.15856      0.00000     0.83922    0.00221     0.84144
 =======================================================================
   * Total *    0.00000     21.99171    59.76547    0.24282    82.00000

 Normal termination of Gaussian 09 at Fri Jul 23 17:33:49 2021.
