 Gaussian 09, Revision D.01,
 Gaussian 09:  ES64L-G09RevD.01 24-Apr-2013

 -------------------------------------------------------
 # opt freq=noraman b3lyp/6-311+g(d,p) geom=connectivity
 -------------------------------------------------------

 -------------------
 Title Card Required
 -------------------
 Symbolic Z-matrix:
 Charge =  0 Multiplicity = 1

 SCF Done:  E(RB3LYP) =  -3497.58978719     A.U. after   16 cycles
 SCF Done:  E(RB3LYP) =  -3497.64064654     A.U. after   16 cycles
 SCF Done:  E(RB3LYP) =  -3497.65553436     A.U. after   17 cycles
 SCF Done:  E(RB3LYP) =  -3497.66864073     A.U. after   16 cycles
 SCF Done:  E(RB3LYP) =  -3497.66818469     A.U. after   17 cycles
 SCF Done:  E(RB3LYP) =  -3497.67352252     A.U. after   13 cycles
 SCF Done:  E(RB3LYP) =  -3497.67438042     A.U. after   13 cycles
 SCF Done:  E(RB3LYP) =  -3497.67489932     A.U. after   14 cycles
 SCF Done:  E(RB3LYP) =  -3497.67828726     A.U. after   15 cycles
 SCF Done:  E(RB3LYP) =  -3497.67814659     A.U. after   13 cycles
 SCF Done:  E(RB3LYP) =  -3497.67918087     A.U. after    9 cycles
 SCF Done:  E(RB3LYP) =  -3497.67918094     A.U. after   10 cycles
 SCF Done:  E(RB3LYP) =  -3497.67918097     A.U. after   10 cycles
 SCF Done:  E(RB3LYP) =  -3497.67918098     A.U. after   11 cycles
 SCF Done:  E(RB3LYP) =  -3497.67918105     A.U. after   10 cycles
 SCF Done:  E(RB3LYP) =  -3497.67918103     A.U. after   10 cycles
 SCF Done:  E(RB3LYP) =  -3497.67918115     A.U. after   10 cycles
 SCF Done:  E(RB3LYP) =  -3497.67918112     A.U. after    9 cycles
 SCF Done:  E(RB3LYP) =  -3497.67918110     A.U. after    9 cycles
 Optimization completed.
    -- Stationary point found.
 Normal termination of Gaussian 09 at Mon Jan  9 16:59:37 2023.

 ----------------------------------------------------------------------
 #N Geom=AllCheck Guess=TCheck SCRF=Check GenChk RB3LYP/6-311+G(d,p) Fr
 eq
 ----------------------------------------------------------------------

 Structure from the checkpoint file:  "substitutedquinolines8_Marder.chk"
 -------------------
 Title Card Required
 -------------------
 Charge =  0 Multiplicity = 1

                         Standard orientation:
 ---------------------------------------------------------------------
 Center     Atomic      Atomic             Coordinates (Angstroms)
 Number     Number       Type             X           Y           Z
 ---------------------------------------------------------------------
      1          6           0        1.184363   -2.469896    0.228269
      2          6           0       -0.000036   -3.161341   -0.000036
      3          6           0       -1.184410   -2.469847   -0.228306
      4          6           0       -1.183815   -1.080224   -0.224640
      5          6           0        0.000014   -0.373246    0.000033
      6          6           0        1.183818   -1.080277    0.224672
      7          1           0        2.114600   -2.994321    0.405176
      8          1           0       -0.000051   -4.244399   -0.000062
      9          1           0       -2.114666   -2.994227   -0.405239
     10         35           0        0.000048    1.528998    0.000079
     11          8           0        2.346040   -0.383016    0.519636
     12          8           0       -2.345995   -0.382887   -0.519572
     13          6           0        3.355056   -0.339260   -0.423579
     14          8           0        3.255129   -0.860751   -1.498453
     15          6           0       -3.355158   -0.339386    0.423500
     16          8           0       -3.255415   -0.861190    1.498239
     17          6           0        4.557177    0.444465    0.105163
     18          6           0       -4.557171    0.444528   -0.105206
     19          6           0       -5.050484   -0.204226   -1.417294
     20          1           0       -5.343990   -1.246095   -1.259421
     21          1           0       -5.927485    0.338177   -1.780894
     22          1           0       -4.282287   -0.174897   -2.191194
     23          6           0       -4.124772    1.903508   -0.372545
     24          1           0       -4.984438    2.472985   -0.736642
     25          1           0       -3.764900    2.383185    0.541514
     26          1           0       -3.332565    1.953908   -1.120392
     27          6           0       -5.670117    0.408954    0.953028
     28          1           0       -5.990040   -0.614347    1.160644
     29          1           0       -5.337845    0.849519    1.894765
     30          1           0       -6.533890    0.973808    0.592333
     31          6           0        4.124833    1.903337    0.373167
     32          1           0        3.332795    1.953441    1.121212
     33          1           0        4.984576    2.472684    0.737288
     34          1           0        3.764751    2.383365   -0.540626
     35          6           0        5.050782   -0.204801    1.416890
     36          1           0        5.927860    0.337466    1.780506
     37          1           0        4.282756   -0.175777    2.190971
     38          1           0        5.344259   -1.246605    1.258542
     39          6           0        5.669898    0.409308   -0.953321
     40          1           0        5.989772   -0.613910   -1.161418
     41          1           0        5.337427    0.850253   -1.894810
     42          1           0        6.533750    0.974014   -0.592581
 ---------------------------------------------------------------------

 SCF Done:  E(RB3LYP) =  -3497.67918110     A.U. after    1 cycles

 The electronic state is 1-A.
 Alpha  occ. eigenvalues -- -482.84083 -62.49357 -56.31409 -56.31006 -56.30979
 Alpha  occ. eigenvalues --  -19.18632 -19.18632 -19.12762 -19.12762 -10.31427
 Alpha  occ. eigenvalues --  -10.31427 -10.26217 -10.26217 -10.24727 -10.20971
 Alpha  occ. eigenvalues --  -10.20971 -10.19806 -10.19611 -10.19602 -10.17296
 Alpha  occ. eigenvalues --  -10.17296 -10.17056 -10.17056 -10.16498 -10.16498
 Alpha  occ. eigenvalues --   -8.70330  -6.53519  -6.52177  -6.52102  -2.64604
 Alpha  occ. eigenvalues --   -2.64230  -2.64175  -2.63108  -2.63106  -1.12822
 Alpha  occ. eigenvalues --   -1.12737  -1.04649  -1.04535  -0.89181  -0.83893
 Alpha  occ. eigenvalues --   -0.83467  -0.82419  -0.77689  -0.75014  -0.70120
 Alpha  occ. eigenvalues --   -0.70091  -0.69832  -0.69771  -0.68383  -0.67546
 Alpha  occ. eigenvalues --   -0.61997  -0.61010  -0.58425  -0.55125  -0.52547
 Alpha  occ. eigenvalues --   -0.51605  -0.50198  -0.50129  -0.49577  -0.49148
 Alpha  occ. eigenvalues --   -0.47407  -0.46371  -0.44874  -0.44778  -0.44487
 Alpha  occ. eigenvalues --   -0.44051  -0.43832  -0.43038  -0.42638  -0.40710
 Alpha  occ. eigenvalues --   -0.40113  -0.40080  -0.39678  -0.39297  -0.38813
 Alpha  occ. eigenvalues --   -0.38521  -0.37696  -0.37694  -0.37186  -0.36863
 Alpha  occ. eigenvalues --   -0.34712  -0.34610  -0.34593  -0.34570  -0.33644
 Alpha  occ. eigenvalues --   -0.33233  -0.32819  -0.29871  -0.29212  -0.29026
 Alpha  occ. eigenvalues --   -0.26512  -0.25709
 Alpha virt. eigenvalues --   -0.03462  -0.03340  -0.02735  -0.01123  -0.01077
 Alpha virt. eigenvalues --   -0.00357   0.00083   0.01144   0.02125   0.02440
 Alpha virt. eigenvalues --    0.02666   0.02795   0.03046   0.03499   0.04448

 Mulliken charges:
               1
     1  C    0.461085
     2  C   -0.157295
     3  C    0.460971
     4  C   -1.053096
     5  C    1.368030
     6  C   -1.053187
     7  H    0.132556
     8  H    0.136945
     9  H    0.132562
    10  Br  -0.084341
    11  O    0.126929
    12  O    0.126926
    13  C   -0.416770
    14  O   -0.161943
    15  C   -0.416665
    16  O   -0.161967
    17  C    0.440574
    18  C    0.440449
    19  C   -0.508916
    20  H    0.145008
    21  H    0.149388
    22  H    0.163225
    23  C   -0.488946
    24  H    0.145418
    25  H    0.152435
    26  H    0.163802
    27  C   -0.529626
    28  H    0.152032
    29  H    0.157771
    30  H    0.137555
    31  C   -0.489023
    32  H    0.163805
    33  H    0.145420
    34  H    0.152436
    35  C   -0.508923
    36  H    0.149388
    37  H    0.163220
    38  H    0.145011
    39  C   -0.529599
    40  H    0.152036
    41  H    0.157766
    42  H    0.137553
 Sum of Mulliken charges =   0.00000

 Dipole moment (field-independent basis, Debye):
    X=              0.0002    Y=              0.1595    Z=              0.0001  Tot=              0.1595
 Quadrupole moment (field-independent basis, Debye-Ang):
   XX=           -121.2589   YY=           -129.4027   ZZ=           -149.8244
   XY=             -0.0022   XZ=             12.7830   YZ=              0.0013

  Exact polarizability: 270.968   0.001 225.910   2.963   0.000 169.149
 Approx polarizability: 335.082   0.001 354.158   8.737  -0.002 274.886

                      1                      2                      3
                      A                      A                      A
 Frequencies --     10.8155                12.3153                28.6824
 Red. masses --      3.5710                 3.1640                 6.7980
 Frc consts  --      0.0002                 0.0003                 0.0033
 IR Inten    --      0.1537                 0.4486                 0.3905

                      4                      5                      6
                      A                      A                      A
 Frequencies --     30.5422                46.2106                48.7154
 Red. masses --      5.0563                 8.0539                 5.3535
 Frc consts  --      0.0028                 0.0101                 0.0075
 IR Inten    --      0.0064                 0.3697                 1.7167

                      7                      8                      9
                      A                      A                      A
 Frequencies --     57.4704                81.0464               127.3607
 Red. masses --      5.7247                 5.5891                 4.9089
 Frc consts  --      0.0111                 0.0216                 0.0469
 IR Inten    --      1.2745                 0.0686                 4.7807

                     10                     11                     12
                      A                      A                      A
 Frequencies --    161.5595               161.9515               197.6670
 Red. masses --      4.4809                 6.2189                 1.8488
 Frc consts  --      0.0689                 0.0961                 0.0426
 IR Inten    --      0.0911                 0.7907                 0.5685

                     13                     14                     15
                      A                      A                      A
 Frequencies --    209.0042               214.2483               219.3497
 Red. masses --      1.2441                 2.7218                 1.2919
 Frc consts  --      0.0320                 0.0736                 0.0366
 IR Inten    --      0.6934                 1.0329                 0.1890

                     16                     17                     18
                      A                      A                      A
 Frequencies --    239.5601               245.1991               262.7889
 Red. masses --      3.1535                 1.7859                 1.1261
 Frc consts  --      0.1066                 0.0633                 0.0458
 IR Inten    --      0.0006                 1.1494                 0.4368

                     19                     20                     21
                      A                      A                      A
 Frequencies --    263.4342               272.5229               281.9502
 Red. masses --      1.1806                 1.2537                 1.3170
 Frc consts  --      0.0483                 0.0549                 0.0617
 IR Inten    --      0.0535                 0.0183                 0.5380

                     22                     23                     24
                      A                      A                      A
 Frequencies --    295.0796               307.8886               313.0290
 Red. masses --      3.4280                 3.7505                 3.0585
 Frc consts  --      0.1759                 0.2095                 0.1766
 IR Inten    --      0.1924                 3.4985                 0.7657

                     25                     26                     27
                      A                      A                      A
 Frequencies --    327.1224               352.2671               353.3036
 Red. masses --      3.7881                 3.0437                 3.2855
 Frc consts  --      0.2388                 0.2225                 0.2416
 IR Inten    --      4.2578                 1.1302                 9.6741

                     28                     29                     30
                      A                      A                      A
 Frequencies --    373.2536               375.7878               407.4044
 Red. masses --      2.4095                 2.3194                 4.1560
 Frc consts  --      0.1978                 0.1930                 0.4064
 IR Inten    --      0.0187                 0.1337                 1.6668

                     31                     32                     33
                      A                      A                      A
 Frequencies --    449.9844               470.8957               511.6956
 Red. masses --      3.2127                 4.3016                 4.1568
 Frc consts  --      0.3833                 0.5620                 0.6413
 IR Inten    --      8.3039                 4.0646                 2.3064

                     34                     35                     36
                      A                      A                      A
 Frequencies --    531.3467               561.6603               570.1349
 Red. masses --      5.2136                 4.4436                 5.2081
 Frc consts  --      0.8672                 0.8259                 0.9974
 IR Inten    --      1.9603                 2.5840                 5.1904

                     37                     38                     39
                      A                      A                      A
 Frequencies --    591.9524               615.3576               661.2805
 Red. masses --      5.0736                 4.4818                 5.7645
 Frc consts  --      1.0475                 0.9999                 1.4852
 IR Inten    --      2.4885                 1.9880                 7.8780

                     40                     41                     42
                      A                      A                      A
 Frequencies --    713.5217               761.3748               761.4307
 Red. masses --      3.3081                 5.2705                 6.9031
 Frc consts  --      0.9923                 1.8001                 2.3580
 IR Inten    --     14.9479                 3.0154                 3.6467

                     43                     44                     45
                      A                      A                      A
 Frequencies --    768.2599               779.5911               817.1388
 Red. masses --      1.8736                 6.1478                 3.9112
 Frc consts  --      0.6516                 2.2014                 1.5387
 IR Inten    --     16.0087                 0.1145                 0.8527

                     46                     47                     48
                      A                      A                      A
 Frequencies --    826.7694               873.1747               887.7694
 Red. masses --      2.6881                 2.3650                 5.1477
 Frc consts  --      1.0826                 1.0624                 2.3904
 IR Inten    --      1.8745                 1.3966                40.6596

                     49                     50                     51
                      A                      A                      A
 Frequencies --    924.3972               939.7102               939.7387
 Red. masses --      2.0125                 1.7680                 1.7678
 Frc consts  --      1.0132                 0.9199                 0.9198
 IR Inten    --      0.3373                 0.9743                 1.3455

                     52                     53                     54
                      A                      A                      A
 Frequencies --    946.9569               947.6784               970.7288
 Red. masses --      1.6752                 1.6341                 1.2011
 Frc consts  --      0.8851                 0.8647                 0.6669
 IR Inten    --      9.6427                 0.0001                 0.0182

                     55                     56                     57
                      A                      A                      A
 Frequencies --    970.7412               982.7148               991.0277
 Red. masses --      1.2012                 1.3475                 3.6921
 Frc consts  --      0.6669                 0.7667                 2.1364
 IR Inten    --      0.0242                 1.8380                 1.0597

                     58                     59                     60
                      A                      A                      A
 Frequencies --   1042.2855              1046.6055              1047.5739
 Red. masses --      1.8527                 1.5730                 1.5639
 Frc consts  --      1.1858                 1.0152                 1.0112
 IR Inten    --      1.4278               135.9670                 0.8406

                     61                     62                     63
                      A                      A                      A
 Frequencies --   1048.6078              1049.7198              1097.5531
 Red. masses --      1.5537                 3.2645                 3.9415
 Frc consts  --      1.0066                 2.1194                 2.7975
 IR Inten    --    122.0249                17.1419              1283.0325

                     64                     65                     66
                      A                      A                      A
 Frequencies --   1112.1036              1115.0622              1187.3849
 Red. masses --      2.4514                 2.2550                 1.1613
 Frc consts  --      1.7863                 1.6520                 0.9646
 IR Inten    --     52.4296                26.3721                14.8597

                     67                     68                     69
                      A                      A                      A
 Frequencies --   1225.4619              1225.4943              1243.2542
 Red. masses --      2.7052                 2.7048                 2.4215
 Frc consts  --      2.3936                 2.3934                 2.2052
 IR Inten    --      2.7800                 2.2159                27.8223

                     70                     71                     72
                      A                      A                      A
 Frequencies --   1245.3329              1252.7579              1268.1026
 Red. masses --      2.9215                 2.2817                 4.3332
 Frc consts  --      2.6695                 2.1098                 4.1055
 IR Inten    --      1.9336               110.1408                23.6989

                     73                     74                     75
                      A                      A                      A
 Frequencies --   1287.9536              1293.2032              1314.2888
 Red. masses --      2.9768                 3.3704                 8.4408
 Frc consts  --      2.9094                 3.3209                 8.5904
 IR Inten    --     33.7448                 0.1957                 0.3665

                     76                     77                     78
                      A                      A                      A
 Frequencies --   1395.9375              1395.9810              1404.2736
 Red. masses --      1.2023                 1.2024                 1.2191
 Frc consts  --      1.3803                 1.3805                 1.4165
 IR Inten    --      7.1430                 6.6605                 9.4294

                     79                     80                     81
                      A                      A                      A
 Frequencies --   1404.4216              1432.7154              1432.9973
 Red. masses --      1.2203                 1.2199                 1.2209
 Frc consts  --      1.4182                 1.4753                 1.4772
 IR Inten    --      2.7924                31.7458                 2.7925

                     82                     83                     84
                      A                      A                      A
 Frequencies --   1466.7786              1479.2376              1479.2665
 Red. masses --      3.6581                 1.0466                 1.0476
 Frc consts  --      4.6370                 1.3493                 1.3506
 IR Inten    --     23.3108                 0.0038                 0.0027

                     85                     86                     87
                      A                      A                      A
 Frequencies --   1487.7610              1488.1344              1488.5049
 Red. masses --      1.2641                 1.0442                 1.6997
 Frc consts  --      1.6486                 1.3625                 2.2188
 IR Inten    --     47.6344                 0.1590                65.3142

                     88                     89                     90
                      A                      A                      A
 Frequencies --   1491.7036              1491.8912              1501.6208
 Red. masses --      1.0658                 1.0450                 1.0481
 Frc consts  --      1.3974                 1.3704                 1.3925
 IR Inten    --      7.0305                 0.6862                 6.8834

                     91                     92                     93
                      A                      A                      A
 Frequencies --   1501.6566              1504.2535              1504.3035
 Red. masses --      1.0481                 1.0537                 1.0531
 Frc consts  --      1.3925                 1.4048                 1.4041
 IR Inten    --     11.8157                18.0561                 1.5413

                     94                     95                     96
                      A                      A                      A
 Frequencies --   1523.0494              1523.4527              1621.5936
 Red. masses --      1.0713                 1.0685                 6.3846
 Frc consts  --      1.4642                 1.4611                 9.8916
 IR Inten    --     52.8452                14.5798                 1.4450

                     97                     98                     99
                      A                      A                      A
 Frequencies --   1622.1259              1812.5786              1813.0217
 Red. masses --      7.0930                12.7352                12.7403
 Frc consts  --     10.9964                24.6519                24.6738
 IR Inten    --     52.7811               349.8940                61.6969

                    100                    101                    102
                      A                      A                      A
 Frequencies --   3027.7340              3027.7518              3030.4253
 Red. masses --      1.0355                 1.0355                 1.0358
 Frc consts  --      5.5928                 5.5929                 5.6044
 IR Inten    --     25.0481                23.7595                 8.6150

                    103                    104                    105
                      A                      A                      A
 Frequencies --   3030.4483              3038.4211              3038.5012
 Red. masses --      1.0358                 1.0360                 1.0360
 Frc consts  --      5.6044                 5.6354                 5.6356
 IR Inten    --     15.9341                54.5304                 4.6332

                    106                    107                    108
                      A                      A                      A
 Frequencies --   3088.1188              3088.1497              3092.4564
 Red. masses --      1.1023                 1.1023                 1.1022
 Frc consts  --      6.1935                 6.1936                 6.2106
 IR Inten    --      2.6284                23.2534                39.0057

                    109                    110                    111
                      A                      A                      A
 Frequencies --   3092.5457              3102.8806              3102.9089
 Red. masses --      1.1022                 1.1016                 1.1016
 Frc consts  --      6.2109                 6.2491                 6.2491
 IR Inten    --      0.7257                39.3208                37.8530

                    112                    113                    114
                      A                      A                      A
 Frequencies --   3111.7598              3111.7692              3115.8628
 Red. masses --      1.1022                 1.1022                 1.1013
 Frc consts  --      6.2883                 6.2883                 6.2998
 IR Inten    --     23.7706                16.0413                15.5861

                    115                    116                    117
                      A                      A                      A
 Frequencies --   3115.8732              3121.0921              3121.1319
 Red. masses --      1.1013                 1.1007                 1.1007
 Frc consts  --      6.2999                 6.3172                 6.3173
 IR Inten    --      3.3934                58.0618                 1.5074

                    118                    119                    120
                      A                      A                      A
 Frequencies --   3185.8485              3201.8305              3208.3276
 Red. masses --      1.0875                 1.0919                 1.0970
 Frc consts  --      6.5030                 6.5950                 6.6532
 IR Inten    --      3.8350                 4.5658                 2.0715

 - Thermochemistry -
 -------------------
 Temperature   298.150 Kelvin.  Pressure   1.00000 Atm.
 Atom     1 has atomic number  6 and mass  12.00000

 Molecular mass:   356.06232 amu.
 Principal axes and moments of inertia in atomic units:
                           1         2         3
     Eigenvalues --  3137.15426********************
           X            0.99998   0.00000   0.00689
           Y            0.00000   1.00000   0.00000
           Z           -0.00689   0.00000   0.99998
 This molecule is an asymmetric top.
 Rotational symmetry number  1.
 Warning -- assumption of classical behavior for rotation
           may cause significant error
 Rotational temperatures (Kelvin)      0.02761     0.00633     0.00562
 Rotational constants (GHZ):           0.57528     0.13197     0.11705
 Zero-point vibrational energy     894019.6 (Joules/Mol)
                                  213.67581 (Kcal/Mol)
 Warning -- explicit consideration of  38 degrees of freedom as
           vibrations may cause significant error
 Vibrational temperatures:     15.56    17.72    41.27    43.94    66.49
          (Kelvin)             70.09    82.69   116.61   183.24   232.45
                              233.01   284.40   300.71   308.26   315.59
                              344.67   352.79   378.09   379.02   392.10
                              405.66   424.55   442.98   450.38   470.66
                              506.83   508.32   537.03   540.67   586.16
                              647.43   677.51   736.21   764.49   808.10
                              820.30   851.69   885.36   951.43  1026.60
                             1095.45  1095.53  1105.35  1121.66  1175.68
                             1189.54  1256.30  1277.30  1330.00  1352.03
                             1352.07  1362.46  1363.50  1396.66  1396.68
                             1413.91  1425.87  1499.61  1505.83  1507.22
                             1508.71  1510.31  1579.13  1600.07  1604.32
                             1708.38  1763.16  1763.21  1788.76  1791.75
                             1802.44  1824.51  1853.08  1860.63  1890.97
                             2008.44  2008.50  2020.43  2020.65  2061.36
                             2061.76  2110.36  2128.29  2128.33  2140.55
                             2141.09  2141.62  2146.23  2146.50  2160.49
                             2160.55  2164.28  2164.35  2191.33  2191.91
                             2333.11  2333.87  2607.89  2608.53  4356.23
                             4356.25  4360.10  4360.13  4371.60  4371.72
                             4443.11  4443.15  4449.35  4449.48  4464.35
                             4464.39  4477.12  4477.14  4483.03  4483.04
                             4490.55  4490.61  4583.72  4606.71  4616.06

 Zero-point correction=                           0.340514 (Hartree/Particle)
 Thermal correction to Energy=                    0.363799
 Thermal correction to Enthalpy=                  0.364743
 Thermal correction to Gibbs Free Energy=         0.284031
 Sum of electronic and zero-point Energies=          -3497.338667
 Sum of electronic and thermal Energies=             -3497.315383
 Sum of electronic and thermal Enthalpies=           -3497.314438
 Sum of electronic and thermal Free Energies=        -3497.395150

                     E (Thermal)             CV                S
                      KCal/Mol        Cal/Mol-Kelvin    Cal/Mol-Kelvin
 Total                  228.287             85.539            169.871
 Electronic               0.000              0.000              0.000
 Translational            0.889              2.981             43.503
 Rotational               0.889              2.981             34.847
 Vibrational            226.510             79.578             91.521
 Vibration     1          0.593              1.987              7.855
 Vibration     2          0.593              1.987              7.597
 Vibration     3          0.593              1.984              5.919
 Vibration     4          0.594              1.984              5.794
 Vibration     5          0.595              1.979              4.973
 Vibration     6          0.595              1.978              4.869
 Vibration     7          0.596              1.975              4.542
 Vibration     8          0.600              1.962              3.865
 Vibration     9          0.611              1.926              2.986
 Vibration    10          0.622              1.890              2.531
 Vibration    11          0.622              1.889              2.527
 Vibration    12          0.637              1.843              2.155
 Vibration    13          0.642              1.827              2.052
 Vibration    14          0.644              1.819              2.007
 Vibration    15          0.647              1.812              1.964
 Vibration    16          0.657              1.780              1.806
 Vibration    17          0.660              1.771              1.765
 Vibration    18          0.670              1.741              1.643
 Vibration    19          0.670              1.740              1.639
 Vibration    20          0.676              1.724              1.580
 Vibration    21          0.681              1.707              1.522
 Vibration    22          0.689              1.683              1.445
 Vibration    23          0.698              1.659              1.374
 Vibration    24          0.701              1.649              1.346
 Vibration    25          0.711              1.621              1.274
 Vibration    26          0.729              1.571              1.156
 Vibration    27          0.730              1.568              1.151
 Vibration    28          0.745              1.527              1.066
 Vibration    29          0.747              1.522              1.056
 Vibration    30          0.772              1.454              0.936
 Vibration    31          0.809              1.361              0.796
 Vibration    32          0.828              1.315              0.735
 Vibration    33          0.867              1.224              0.630
 Vibration    34          0.886              1.181              0.584
 Vibration    35          0.917              1.114              0.521
 Vibration    36          0.926              1.096              0.504
 Vibration    37          0.949              1.049              0.464
 Vibration    38          0.975              0.999              0.424

 Optimization completed.
    -- Stationary point found.
 Normal termination of Gaussian 09 at Mon Jan  9 17:42:05 2023.
