 Gaussian 09, Revision D.01,
 Gaussian 09:  ES64L-G09RevD.01 24-Apr-2013

 ----------------------------------------------------------------------
 # opt freq=noraman b3lyp/6-311+g(d,p) geom=connectivity pop=(hirshfeld
 ,chelpg,mbs,npa)
 ----------------------------------------------------------------------

 ---
 tit
 ---
 Symbolic Z-matrix:
 Charge =  0 Multiplicity = 1

 SCF Done:  E(RB3LYP) =  -709.167096098     A.U. after   15 cycles
 SCF Done:  E(RB3LYP) =  -709.174708799     A.U. after   13 cycles
 SCF Done:  E(RB3LYP) =  -709.175108895     A.U. after   12 cycles
 SCF Done:  E(RB3LYP) =  -709.175156107     A.U. after   11 cycles
 SCF Done:  E(RB3LYP) =  -709.175161213     A.U. after   11 cycles
 SCF Done:  E(RB3LYP) =  -709.175164450     A.U. after   11 cycles
 SCF Done:  E(RB3LYP) =  -709.175167939     A.U. after   12 cycles
 SCF Done:  E(RB3LYP) =  -709.175170359     A.U. after   12 cycles
 SCF Done:  E(RB3LYP) =  -709.175171663     A.U. after   11 cycles
 SCF Done:  E(RB3LYP) =  -709.175171459     A.U. after   11 cycles
 SCF Done:  E(RB3LYP) =  -709.175171392     A.U. after   10 cycles
 SCF Done:  E(RB3LYP) =  -709.175171364     A.U. after    9 cycles
 SCF Done:  E(RB3LYP) =  -709.175171316     A.U. after   10 cycles
 SCF Done:  E(RB3LYP) =  -709.175171301     A.U. after   10 cycles
 SCF Done:  E(RB3LYP) =  -709.175171266     A.U. after   10 cycles
 SCF Done:  E(RB3LYP) =  -709.175171311     A.U. after    9 cycles
 Optimization completed.
    -- Stationary point found.
 Normal termination of Gaussian 09 at Wed Dec 21 12:14:42 2022.

 ----------------------------------------------------------------------
 #N Geom=AllCheck Guess=TCheck SCRF=Check GenChk RB3LYP/6-311+G(d,p) Fr
 eq
 ----------------------------------------------------------------------

 Structure from the checkpoint file:  "2Me-methylthioether.chk"
 ---
 tit
 ---
 Charge =  0 Multiplicity = 1

                         Standard orientation:
 ---------------------------------------------------------------------
 Center     Atomic      Atomic             Coordinates (Angstroms)
 Number     Number       Type             X           Y           Z
 ---------------------------------------------------------------------
      1          6           0       -1.864913   -0.438554    0.036999
      2          6           0       -0.537858   -0.827026   -0.181891
      3          6           0        0.485893    0.117966   -0.280768
      4          6           0        0.185208    1.479096   -0.169646
      5          6           0       -1.130015    1.875839    0.055255
      6          6           0       -2.145395    0.925695    0.155498
      7          1           0       -0.293402   -1.879102   -0.281803
      8          1           0        0.972904    2.216000   -0.273150
      9          1           0       -1.367566    2.930763    0.138493
     10          1           0       -3.168274    1.248859    0.320121
     11          6           0       -2.956796   -1.473726    0.167533
     12          1           0       -2.774239   -2.330003   -0.486082
     13          1           0       -3.017303   -1.852760    1.193586
     14          1           0       -3.933516   -1.055487   -0.085591
     15         16           0        2.170597   -0.422433   -0.610876
     16          6           0        2.904348   -0.281818    1.065122
     17          1           0        3.948423   -0.583436    0.968817
     18          1           0        2.860855    0.746273    1.424914
     19          1           0        2.399735   -0.947001    1.766107
 ---------------------------------------------------------------------

 SCF Done:  E(RB3LYP) =  -709.175171311     A.U. after    1 cycles

 The electronic state is 1-A.
 Alpha  occ. eigenvalues --  -88.84208 -10.20648 -10.19530 -10.19179 -10.18232
 Alpha  occ. eigenvalues --  -10.18094 -10.17997 -10.17981 -10.17402  -7.92800
 Alpha  occ. eigenvalues --   -5.89215  -5.88846  -5.88131  -0.87209  -0.80209
 Alpha  occ. eigenvalues --   -0.77486  -0.74096  -0.69521  -0.65137  -0.60648
 Alpha  occ. eigenvalues --   -0.57366  -0.51360  -0.47634  -0.45481  -0.43684
 Alpha  occ. eigenvalues --   -0.42933  -0.42837  -0.41855  -0.40735  -0.39528
 Alpha  occ. eigenvalues --   -0.37633  -0.35336  -0.35242  -0.32042  -0.26115
 Alpha  occ. eigenvalues --   -0.25456  -0.22870
 Alpha virt. eigenvalues --   -0.03062  -0.02116   0.00063   0.00901   0.01588
 Alpha virt. eigenvalues --    0.02361   0.03230   0.03827   0.04118   0.04987
 Alpha virt. eigenvalues --    0.05216   0.06223   0.06717   0.07318   0.07752

 Mulliken charges:
               1
     1  C    0.712281
     2  C   -1.102459
     3  C    1.183465
     4  C   -0.254235
     5  C   -0.237367
     6  C   -0.574766
     7  H    0.139698
     8  H    0.141913
     9  H    0.127946
    10  H    0.119552
    11  C   -0.559281
    12  H    0.145011
    13  H    0.168832
    14  H    0.140596
    15  S    0.049242
    16  C   -0.721288
    17  H    0.175418
    18  H    0.173375
    19  H    0.172068
 Sum of Mulliken charges =   0.00000

 Dipole moment (field-independent basis, Debye):
    X=             -1.0785    Y=              0.2006    Z=              1.5764  Tot=              1.9206
 Quadrupole moment (field-independent basis, Debye-Ang):
   XX=            -57.1107   YY=            -58.9609   ZZ=            -65.5062
   XY=              1.0677   XZ=              3.4357   YZ=             -0.3137

  Exact polarizability: 148.977  -0.761 115.260  -1.792   0.865  79.469
 Approx polarizability: 209.592  -1.995 187.041  -6.811   3.216 121.945

 ESP charges:
               1
     1  C    0.125988
     2  C   -0.184712
     3  C    0.254485
     4  C   -0.169891
     5  C   -0.079208
     6  C   -0.199957
     7  H    0.098413
     8  H    0.103887
     9  H    0.098561
    10  H    0.118472
    11  C   -0.113220
    12  H    0.041895
    13  H    0.042878
    14  H    0.037027
    15  S   -0.312421
    16  C    0.038993
    17  H    0.082346
    18  H    0.012323
    19  H    0.004141
 Sum of ESP charges =   0.00000

 Summary of Natural Population Analysis:

                                       Natural Population
                Natural  -----------------------------------------------
    Atom  No    Charge         Core      Valence    Rydberg      Total
 -----------------------------------------------------------------------
      C    1   -0.02716      1.99904     4.01227    0.01586     6.02716
      C    2   -0.20683      1.99890     4.18815    0.01977     6.20683
      C    3   -0.17421      1.99880     4.15018    0.02523     6.17421
      C    4   -0.21321      1.99899     4.19372    0.02050     6.21321
      C    5   -0.19265      1.99916     4.17505    0.01844     6.19265
      C    6   -0.20045      1.99905     4.18466    0.01674     6.20045
      H    7    0.21417      0.00000     0.78356    0.00228     0.78583
      H    8    0.21442      0.00000     0.78369    0.00189     0.78558
      H    9    0.20719      0.00000     0.79113    0.00168     0.79281
      H   10    0.20410      0.00000     0.79432    0.00158     0.79590
      C   11   -0.58945      1.99931     4.58022    0.00992     6.58945
      H   12    0.21035      0.00000     0.78833    0.00133     0.78965
      H   13    0.21399      0.00000     0.78464    0.00137     0.78601
      H   14    0.20787      0.00000     0.79084    0.00129     0.79213
      S   15    0.19802      9.99915     5.75870    0.04413    15.80198
      C   16   -0.69363      1.99927     4.68412    0.01024     6.69363
      H   17    0.21623      0.00000     0.78226    0.00151     0.78377
      H   18    0.20520      0.00000     0.79251    0.00229     0.79480
      H   19    0.20606      0.00000     0.79157    0.00237     0.79394
 =======================================================================
   * Total *    0.00000     25.99167    47.80991    0.19842    74.00000

                      1                      2                      3
                      A                      A                      A
 Frequencies --     11.9556                39.7096               112.7356
 Red. masses --      3.1207                 1.0394                 3.3846
 Frc consts  --      0.0003                 0.0010                 0.0253
 IR Inten    --      1.9050                 0.2717                 0.9591

                      4                      5                      6
                      A                      A                      A
 Frequencies --    151.7415               208.3908               230.2529
 Red. masses --      1.0558                 3.0731                 3.9775
 Frc consts  --      0.0143                 0.0786                 0.1242
 IR Inten    --      0.0945                 2.1592                 0.3609

                      7                      8                      9
                      A                      A                      A
 Frequencies --    255.0755               386.1932               407.9545
 Red. masses --      3.8107                 3.0870                 7.6510
 Frc consts  --      0.1461                 0.2713                 0.7502
 IR Inten    --      0.7616                 0.1648                 0.4082

                     10                     11                     12
                      A                      A                      A
 Frequencies --    447.9080               527.1469               554.8361
 Red. masses --      2.8817                 4.8433                 3.9134
 Frc consts  --      0.3406                 0.7930                 0.7098
 IR Inten    --      5.5365                 0.7772                 0.4580

                     13                     14                     15
                      A                      A                      A
 Frequencies --    685.0273               697.7195               708.1889
 Red. masses --      5.9512                 6.9302                 2.2719
 Frc consts  --      1.6454                 1.9877                 0.6713
 IR Inten    --      0.8579                 0.7073                19.4881

                     16                     17                     18
                      A                      A                      A
 Frequencies --    792.3467               862.0519               905.5222
 Red. masses --      1.4000                 4.7774                 1.3115
 Frc consts  --      0.5179                 2.0917                 0.6336
 IR Inten    --     34.6072                 6.7288                 3.4537

                     19                     20                     21
                      A                      A                      A
 Frequencies --    923.0930               971.3840               993.1522
 Red. masses --      1.3524                 1.1780                 1.3263
 Frc consts  --      0.6790                 0.6549                 0.7708
 IR Inten    --      1.6801                 2.1248                 8.4177

                     22                     23                     24
                      A                      A                      A
 Frequencies --    993.6521              1009.9114              1014.6820
 Red. masses --      1.3181                 1.4942                 5.3417
 Frc consts  --      0.7668                 0.8979                 3.2403
 IR Inten    --      7.9761                 0.1072                 1.6024

                     25                     26                     27
                      A                      A                      A
 Frequencies --   1062.9542              1100.3878              1123.3537
 Red. masses --      1.5495                 2.1579                 1.5169
 Frc consts  --      1.0315                 1.5395                 1.1278
 IR Inten    --      6.6610                 3.7888                 2.3470

                     28                     29                     30
                      A                      A                      A
 Frequencies --   1191.4201              1228.5965              1303.4038
 Red. masses --      1.1428                 2.7216                 2.7052
 Frc consts  --      0.9557                 2.4204                 2.7077
 IR Inten    --      0.1556                 1.3253                 0.0599

                     31                     32                     33
                      A                      A                      A
 Frequencies --   1333.1407              1356.6856              1415.2456
 Red. masses --      1.8844                 1.1556                 1.2406
 Frc consts  --      1.9732                 1.2532                 1.4640
 IR Inten    --      1.6710                 3.9157                 1.1454

                     34                     35                     36
                      A                      A                      A
 Frequencies --   1434.3713              1465.3614              1481.4122
 Red. masses --      2.4789                 1.0562                 1.0549
 Frc consts  --      3.0049                 1.3363                 1.3641
 IR Inten    --      2.0919                11.4084                 9.3344

                     37                     38                     39
                      A                      A                      A
 Frequencies --   1490.1527              1494.4694              1506.3442
 Red. masses --      1.0508                 1.2464                 1.9200
 Frc consts  --      1.3747                 1.6402                 2.5669
 IR Inten    --      7.6372                11.7441                20.7977

                     40                     41                     42
                      A                      A                      A
 Frequencies --   1609.8828              1629.2369              3022.4523
 Red. masses --      5.2801                 5.8034                 1.0403
 Frc consts  --      8.0628                 9.0761                 5.5994
 IR Inten    --      4.5603                21.2804                28.1620

                     43                     44                     45
                      A                      A                      A
 Frequencies --   3040.4448              3076.7904              3102.9576
 Red. masses --      1.0284                 1.0949                 1.1024
 Frc consts  --      5.6011                 6.1068                 6.2536
 IR Inten    --     30.3445                17.9547                15.1642

                     46                     47                     48
                      A                      A                      A
 Frequencies --   3126.5045              3129.2476              3157.8683
 Red. masses --      1.1081                 1.1045                 1.0869
 Frc consts  --      6.3819                 6.3720                 6.3858
 IR Inten    --      9.2242                 9.3351                 6.1136

                     49                     50                     51
                      A                      A                      A
 Frequencies --   3171.0476              3173.5439              3188.7561
 Red. masses --      1.0907                 1.0911                 1.0956
 Frc consts  --      6.4619                 6.4745                 6.5636
 IR Inten    --      7.4776                12.7933                10.2393

 - Thermochemistry -
 -------------------
 Temperature   298.150 Kelvin.  Pressure   1.00000 Atm.
 Atom     1 has atomic number  6 and mass  12.00000

 Molecular mass:   138.05032 amu.
 Principal axes and moments of inertia in atomic units:
                           1         2         3
     Eigenvalues --   672.342252096.198632513.60549
           X            0.99963   0.02147   0.01648
           Y           -0.02129   0.99971  -0.01132
           Z           -0.01671   0.01097   0.99980
 This molecule is an asymmetric top.
 Rotational symmetry number  1.
 Warning -- assumption of classical behavior for rotation
           may cause significant error
 Rotational temperatures (Kelvin)      0.12882     0.04132     0.03446
 Rotational constants (GHZ):           2.68426     0.86096     0.71799
 Zero-point vibrational energy     408564.6 (Joules/Mol)
                                   97.64928 (Kcal/Mol)
 Warning -- explicit consideration of  12 degrees of freedom as
           vibrations may cause significant error
 Vibrational temperatures:     17.20    57.13   162.20   218.32   299.83
          (Kelvin)            331.28   367.00   555.65   586.95   644.44
                              758.45   798.28   985.60  1003.86  1018.92
                             1140.01  1240.30  1302.84  1328.12  1397.60
                             1428.92  1429.64  1453.04  1459.90  1529.35
                             1583.21  1616.25  1714.19  1767.67  1875.30
                             1918.09  1951.97  2036.22  2063.74  2108.33
                             2131.42  2143.99  2150.21  2167.29  2316.26
                             2344.11  4348.63  4374.52  4426.81  4464.46
                             4498.34  4502.28  4543.46  4562.42  4566.02
                             4587.90

 Zero-point correction=                           0.155614 (Hartree/Particle)
 Thermal correction to Energy=                    0.165353
 Thermal correction to Enthalpy=                  0.166297
 Thermal correction to Gibbs Free Energy=         0.118244
 Sum of electronic and zero-point Energies=           -709.019557
 Sum of electronic and thermal Energies=              -709.009819
 Sum of electronic and thermal Enthalpies=            -709.008874
 Sum of electronic and thermal Free Energies=         -709.056927

                     E (Thermal)             CV                S
                      KCal/Mol        Cal/Mol-Kelvin    Cal/Mol-Kelvin
 Total                  103.760             34.712            101.136
 Electronic               0.000              0.000              0.000
 Translational            0.889              2.981             40.679
 Rotational               0.889              2.981             29.650
 Vibrational            101.983             28.751             30.807
 Vibration     1          0.593              1.987              7.656
 Vibration     2          0.594              1.981              5.274
 Vibration     3          0.607              1.939              3.221
 Vibration     4          0.619              1.901              2.650
 Vibration     5          0.642              1.828              2.058
 Vibration     6          0.652              1.795              1.877
 Vibration     7          0.665              1.754              1.695
 Vibration     8          0.755              1.500              1.015
 Vibration     9          0.773              1.453              0.934
 Vibration    10          0.807              1.366              0.802
 Vibration    11          0.882              1.190              0.594
 Vibration    12          0.910              1.129              0.534

 Optimization completed.
    -- Stationary point found.
 Normal termination of Gaussian 09 at Wed Dec 21 12:16:42 2022.
