 Gaussian 09, Revision D.01,
 Gaussian 09:  ES64L-G09RevD.01 24-Apr-2013

 ----------------------------------------------------------------------
 # opt=rcfc freq=noraman b3lyp/6-311+g(d,p) geom=allcheck guess=read po
 p=(hirshfeld,chelpg,npa,mbs)
 ----------------------------------------------------------------------

 Structure from the checkpoint file:  "Table4_4_fixed.chk"
 --------
 Table4_4
 --------
 Charge =  0 Multiplicity = 1

 SCF Done:  E(RB3LYP) =  -538.869380371     A.U. after    3 cycles
 Optimization completed.
    -- Stationary point found.
 Normal termination of Gaussian 09 at Thu Apr 20 09:01:58 2023.

 ----------------------------------------------------------------------
 #N Geom=AllCheck Guess=TCheck SCRF=Check GenChk RB3LYP/6-311+G(d,p) Fr
 eq
 ----------------------------------------------------------------------

 Structure from the checkpoint file:  "Table4_4_fixed.chk"
 --------
 Table4_4
 --------
 Charge =  0 Multiplicity = 1

                         Standard orientation:
 ---------------------------------------------------------------------
 Center     Atomic      Atomic             Coordinates (Angstroms)
 Number     Number       Type             X           Y           Z
 ---------------------------------------------------------------------
      1          6           0       -3.606352    0.282074    0.000306
      2          6           0       -3.131047   -1.026784   -0.000914
      3          6           0       -1.757004   -1.267920   -0.001180
      4          6           0       -0.854121   -0.205894   -0.000231
      5          6           0       -1.334902    1.106172    0.000983
      6          6           0       -2.705014    1.348138    0.001252
      7          1           0       -4.673834    0.472754    0.000539
      8          1           0       -3.825998   -1.859034   -0.001652
      9          1           0       -1.387507   -2.288362   -0.002150
     10          1           0       -0.631248    1.929393    0.001698
     11          1           0       -3.072639    2.368305    0.002198
     12          6           0        0.628374   -0.467343   -0.000544
     13          1           0        0.831430   -1.552888   -0.001769
     14          6           0        2.605841   -0.134021   -1.242460
     15          6           0        2.605846   -0.136866    1.242173
     16          6           0        3.303790    0.415953    0.000482
     17          1           0        2.946328    0.354324   -2.156195
     18          1           0        2.792407   -1.214934   -1.340977
     19          1           0        2.946393    0.349335    2.157032
     20          1           0        2.792409   -1.218002    1.338166
     21          1           0        4.362121    0.134235    0.000149
     22          1           0        3.242550    1.507961    0.001742
     23          8           0        1.196570    0.097326   -1.169226
     24          8           0        1.196571    0.094656    1.169476
 ---------------------------------------------------------------------

 SCF Done:  E(RB3LYP) =  -538.869380371     A.U. after    1 cycles

 The electronic state is 1-A.
 Alpha  occ. eigenvalues --  -19.13365 -19.13364 -10.27663 -10.22675 -10.22675
 Alpha  occ. eigenvalues --  -10.18205 -10.17974 -10.17789 -10.17639 -10.17581
 Alpha  occ. eigenvalues --  -10.17484 -10.17351  -1.08241  -1.01265  -0.86241
 Alpha  occ. eigenvalues --   -0.80762  -0.75756  -0.74928  -0.68660  -0.67873
 Alpha  occ. eigenvalues --   -0.61631  -0.60005  -0.57956  -0.53258  -0.50688
 Alpha  occ. eigenvalues --   -0.49709  -0.49370  -0.46412  -0.45095  -0.44993
 Alpha  occ. eigenvalues --   -0.43995  -0.42390  -0.41642  -0.40510  -0.36808
 Alpha  occ. eigenvalues --   -0.36740  -0.36397  -0.34728  -0.33114  -0.32936
 Alpha  occ. eigenvalues --   -0.28113  -0.27376  -0.25703  -0.25488
 Alpha virt. eigenvalues --   -0.01952  -0.01327   0.00139   0.00914   0.01499
 Alpha virt. eigenvalues --    0.02413   0.03097   0.03235   0.04561   0.05015
 Alpha virt. eigenvalues --    0.05345   0.05817   0.06328   0.06893   0.07504

 Mulliken charges:
               1
     1  C   -0.098904
     2  C   -0.263079
     3  C   -1.314643
     4  C    0.106697
     5  C    1.289792
     6  C   -0.175183
     7  H    0.124796
     8  H    0.124029
     9  H    0.116339
    10  H    0.136027
    11  H    0.125586
    12  C   -0.777715
    13  H    0.134532
    14  C   -0.166779
    15  C   -0.166725
    16  C   -0.162218
    17  H    0.159525
    18  H    0.138959
    19  H    0.159522
    20  H    0.138954
    21  H    0.145950
    22  H    0.160042
    23  O    0.032260
    24  O    0.032236
 Sum of Mulliken charges =   0.00000

 Dipole moment (field-independent basis, Debye):
    X=              1.8516    Y=             -0.8459    Z=             -0.0012  Tot=              2.0357
 Quadrupole moment (field-independent basis, Debye-Ang):
   XX=            -57.9831   YY=            -66.9446   ZZ=            -77.6959
   XY=             -0.8365   XZ=             -0.0014   YZ=              0.0105

  Exact polarizability: 159.188  -0.721 118.705  -0.001   0.027  88.653
 Approx polarizability: 209.299  -1.609 197.983  -0.003   0.063 129.682

 ESP charges:
               1
     1  C   -0.096955
     2  C   -0.062249
     3  C   -0.172112
     4  C    0.175421
     5  C   -0.122102
     6  C   -0.085916
     7  H    0.086148
     8  H    0.083377
     9  H    0.080388
    10  H    0.131896
    11  H    0.081805
    12  C    0.298224
    13  H    0.073613
    14  C    0.500211
    15  C    0.500590
    16  C   -0.160383
    17  H   -0.032524
    18  H   -0.081822
    19  H   -0.032527
    20  H   -0.081969
    21  H   -0.027435
    22  H    0.065852
    23  O   -0.560668
    24  O   -0.560863
 Sum of ESP charges =   0.00000

 Summary of Natural Population Analysis:

                                       Natural Population
                Natural  -----------------------------------------------
    Atom  No    Charge         Core      Valence    Rydberg      Total
 -----------------------------------------------------------------------
      C    1   -0.19991      1.99916     4.18280    0.01795     6.19991
      C    2   -0.20390      1.99916     4.18650    0.01824     6.20390
      C    3   -0.18655      1.99906     4.17119    0.01630     6.18655
      C    4   -0.06519      1.99895     4.04563    0.02061     6.06519
      C    5   -0.16928      1.99905     4.15293    0.01729     6.16928
      C    6   -0.20076      1.99916     4.18390    0.01770     6.20076
      H    7    0.20525      0.00000     0.79337    0.00138     0.79475
      H    8    0.20551      0.00000     0.79295    0.00154     0.79449
      H    9    0.20404      0.00000     0.79431    0.00165     0.79596
      H   10    0.21778      0.00000     0.77985    0.00237     0.78222
      H   11    0.20546      0.00000     0.79301    0.00152     0.79454
      C   12    0.42592      1.99908     3.54018    0.03482     5.57408
      H   13    0.14179      0.00000     0.85375    0.00445     0.85821
      C   14   -0.02794      1.99920     4.00705    0.02169     6.02794
      C   15   -0.02794      1.99920     4.00705    0.02169     6.02794
      C   16   -0.44218      1.99929     4.43090    0.01199     6.44218
      H   17    0.19272      0.00000     0.80579    0.00149     0.80728
      H   18    0.15883      0.00000     0.83827    0.00290     0.84117
      H   19    0.19272      0.00000     0.80579    0.00149     0.80728
      H   20    0.15882      0.00000     0.83828    0.00290     0.84118
      H   21    0.20784      0.00000     0.79014    0.00203     0.79216
      H   22    0.20663      0.00000     0.79092    0.00245     0.79337
      O   23   -0.59982      1.99976     6.58072    0.01935     8.59982
      O   24   -0.59983      1.99976     6.58073    0.01935     8.59983
 =======================================================================
   * Total *    0.00000     23.99082    63.74602    0.26315    88.00000

                      1                      2                      3
                      A                      A                      A
 Frequencies --     22.5149                94.3751                98.4713
 Red. masses --      3.7851                 3.7173                 4.5917
 Frc consts  --      0.0011                 0.0195                 0.0262
 IR Inten    --      0.1326                 2.6879                 2.7756

                      4                      5                      6
                      A                      A                      A
 Frequencies --    240.1920               260.1792               299.8116
 Red. masses --      3.3493                 2.8699                 4.0076
 Frc consts  --      0.1138                 0.1145                 0.2122
 IR Inten    --      1.3448                 3.0100                 0.8892

                      7                      8                      9
                      A                      A                      A
 Frequencies --    301.9790               369.0222               413.1658
 Red. masses --      4.3888                 2.1701                 2.8634
 Frc consts  --      0.2358                 0.1741                 0.2880
 IR Inten    --      0.0016                 5.2977                 0.0361

                     10                     11                     12
                      A                      A                      A
 Frequencies --    468.1094               515.7618               544.4322
 Red. masses --      5.2171                 2.4486                 3.4087
 Frc consts  --      0.6736                 0.3838                 0.5953
 IR Inten    --      1.7904                 0.3726                 4.8894

                     13                     14                     15
                      A                      A                      A
 Frequencies --    631.7672               650.2534               662.3885
 Red. masses --      5.6230                 3.6425                 4.8278
 Frc consts  --      1.3223                 0.9074                 1.2480
 IR Inten    --      0.4439                 1.6999                 4.1357

                     16                     17                     18
                      A                      A                      A
 Frequencies --    707.9792               772.9840               852.2067
 Red. masses --      1.7070                 1.9631                 3.1948
 Frc consts  --      0.5041                 0.6911                 1.3671
 IR Inten    --     44.7127                58.0510                 5.2746

                     19                     20                     21
                      A                      A                      A
 Frequencies --    855.5751               872.5934               901.2705
 Red. masses --      1.2507                 3.1635                 1.4345
 Frc consts  --      0.5394                 1.4192                 0.6866
 IR Inten    --      0.0481                 6.7312                 7.3950

                     22                     23                     24
                      A                      A                      A
 Frequencies --    917.4347               950.3465               954.2720
 Red. masses --      1.8166                 2.0141                 3.5013
 Frc consts  --      0.9008                 1.0718                 1.8786
 IR Inten    --     24.3241                 0.3491                22.9054

                     25                     26                     27
                      A                      A                      A
 Frequencies --    985.5053               995.5473              1002.2917
 Red. masses --      1.3750                 3.3574                 3.3247
 Frc consts  --      0.7868                 1.9605                 1.9679
 IR Inten    --      0.0837                95.6954                39.5043

                     28                     29                     30
                      A                      A                      A
 Frequencies --   1005.1930              1018.8946              1049.2031
 Red. masses --      1.3480                 6.2330                 2.0994
 Frc consts  --      0.8025                 3.8125                 1.3617
 IR Inten    --      6.3113                 1.6766                 7.2835

                     31                     32                     33
                      A                      A                      A
 Frequencies --   1059.1435              1103.5401              1126.5072
 Red. masses --      3.0267                 1.6186                 4.0830
 Frc consts  --      2.0005                 1.1614                 3.0528
 IR Inten    --      0.5803                12.5454               244.3376

                     34                     35                     36
                      A                      A                      A
 Frequencies --   1166.8803              1182.1107              1199.3944
 Red. masses --      2.4330                 1.1174                 1.1314
 Frc consts  --      1.9518                 0.9199                 0.9589
 IR Inten    --     59.6616                 0.0295                 0.3860

                     37                     38                     39
                      A                      A                      A
 Frequencies --   1232.6675              1238.5928              1260.4833
 Red. masses --      2.0386                 1.2786                 1.2488
 Frc consts  --      1.8250                 1.1557                 1.1690
 IR Inten    --     17.0996                 4.0561                26.5633

                     40                     41                     42
                      A                      A                      A
 Frequencies --   1301.8724              1334.4688              1351.6760
 Red. masses --      1.2301                 3.2635                 1.6240
 Frc consts  --      1.2284                 3.4241                 1.7482
 IR Inten    --     28.7671                 6.8719                 5.3370

                     43                     44                     45
                      A                      A                      A
 Frequencies --   1365.9434              1370.1638              1399.0117
 Red. masses --      1.1578                 1.4109                 1.2281
 Frc consts  --      1.2727                 1.5606                 1.4162
 IR Inten    --      0.0332                 0.0149                 6.7465

                     46                     47                     48
                      A                      A                      A
 Frequencies --   1406.2139              1420.3292              1472.4821
 Red. masses --      1.3229                 1.6365                 1.0976
 Frc consts  --      1.5413                 1.9451                 1.4022
 IR Inten    --     34.2525                59.4635                 7.0983

                     49                     50                     51
                      A                      A                      A
 Frequencies --   1486.3744              1497.8979              1509.1265
 Red. masses --      2.0812                 1.0868                 1.1075
 Frc consts  --      2.7091                 1.4367                 1.4861
 IR Inten    --     11.2534                 4.1713                 6.3763

                     52                     53                     54
                      A                      A                      A
 Frequencies --   1529.7405              1629.3192              1649.3579
 Red. masses --      2.3542                 5.6505                 5.6662
 Frc consts  --      3.2458                 8.8379                 9.0818
 IR Inten    --      0.3159                 0.3129                 0.4852

                     55                     56                     57
                      A                      A                      A
 Frequencies --   2927.4394              2963.1339              2969.8354
 Red. masses --      1.0823                 1.0719                 1.0723
 Frc consts  --      5.4650                 5.5450                 5.5721
 IR Inten    --     42.7083                18.5374               114.8469

                     58                     59                     60
                      A                      A                      A
 Frequencies --   3033.8191              3078.2284              3097.3146
 Red. masses --      1.0601                 1.1021                 1.0915
 Frc consts  --      5.7489                 6.1530                 6.1694
 IR Inten    --     26.3201                35.3566                38.6124

                     61                     62                     63
                      A                      A                      A
 Frequencies --   3099.6721              3158.0720              3165.2373
 Red. masses --      1.0946                 1.0858                 1.0880
 Frc consts  --      6.1966                 6.3805                 6.4221
 IR Inten    --     28.1215                 3.7264                 2.4247

                     64                     65                     66
                      A                      A                      A
 Frequencies --   3175.7853              3186.8768              3198.0148
 Red. masses --      1.0917                 1.0961                 1.0945
 Frc consts  --      6.4874                 6.5592                 6.5952
 IR Inten    --     23.7109                22.7682                 5.1744

 - Thermochemistry -
 -------------------
 Temperature   298.150 Kelvin.  Pressure   1.00000 Atm.
 Atom     1 has atomic number  6 and mass  12.00000

 Molecular mass:   164.08373 amu.
 Principal axes and moments of inertia in atomic units:
                           1         2         3
     Eigenvalues --   698.006323496.197623524.45417
           X            1.00000  -0.00125   0.00000
           Y            0.00125   1.00000   0.00137
           Z            0.00000  -0.00137   1.00000
 This molecule is an asymmetric top.
 Rotational symmetry number  1.
 Warning -- assumption of classical behavior for rotation
           may cause significant error
 Rotational temperatures (Kelvin)      0.12409     0.02477     0.02458
 Rotational constants (GHZ):           2.58557     0.51620     0.51206
 Zero-point vibrational energy     530905.4 (Joules/Mol)
                                  126.88943 (Kcal/Mol)
 Warning -- explicit consideration of  12 degrees of freedom as
           vibrations may cause significant error
 Vibrational temperatures:     32.39   135.78   141.68   345.58   374.34
          (Kelvin)            431.36   434.48   530.94   594.45   673.50
                              742.07   783.32   908.97   935.57   953.03
                             1018.62  1112.15  1226.13  1230.98  1255.47
                             1296.73  1319.98  1367.33  1372.98  1417.92
                             1432.37  1442.07  1446.25  1465.96  1509.57
                             1523.87  1587.75  1620.79  1678.88  1700.79
                             1725.66  1773.53  1782.06  1813.55  1873.10
                             1920.00  1944.76  1965.29  1971.36  2012.86
                             2023.23  2043.53  2118.57  2138.56  2155.14
                             2171.29  2200.95  2344.22  2373.06  4211.93
                             4263.28  4272.93  4364.98  4428.88  4456.34
                             4459.73  4543.76  4554.06  4569.24  4585.20
                             4601.22

 Zero-point correction=                           0.202211 (Hartree/Particle)
 Thermal correction to Energy=                    0.211992
 Thermal correction to Enthalpy=                  0.212936
 Thermal correction to Gibbs Free Energy=         0.165791
 Sum of electronic and zero-point Energies=           -538.667169
 Sum of electronic and thermal Energies=              -538.657388
 Sum of electronic and thermal Enthalpies=            -538.656444
 Sum of electronic and thermal Free Energies=         -538.703589

                     E (Thermal)             CV                S
                      KCal/Mol        Cal/Mol-Kelvin    Cal/Mol-Kelvin
 Total                  133.027             38.859             99.226
 Electronic               0.000              0.000              0.000
 Translational            0.889              2.981             41.194
 Rotational               0.889              2.981             30.532
 Vibrational            131.250             32.897             27.500
 Vibration     1          0.593              1.985              6.399
 Vibration     2          0.603              1.953              3.567
 Vibration     3          0.604              1.950              3.484
 Vibration     4          0.657              1.779              1.801
 Vibration     5          0.668              1.746              1.661
 Vibration     6          0.692              1.674              1.418
 Vibration     7          0.694              1.670              1.406
 Vibration     8          0.741              1.536              1.084
 Vibration     9          0.777              1.442              0.916
 Vibration    10          0.825              1.321              0.743
 Vibration    11          0.871              1.215              0.620
 Vibration    12          0.900              1.152              0.556

 Optimization completed.
    -- Stationary point found.
 Normal termination of Gaussian 09 at Thu Apr 20 09:07:36 2023.
