 Gaussian 09, Revision D.01,
 Gaussian 09:  ES64L-G09RevD.01 24-Apr-2013

 ----------------------------------------------------------------------
 # opt freq b3lyp/6-311+g(d,p) geom=connectivity pop=(hirshfeld,chelpg,
 mbs,npa)
 ----------------------------------------------------------------------

 -------------------
 Title Card Required
 -------------------
 Symbolic Z-matrix:
 Charge =  0 Multiplicity = 1

 SCF Done:  E(RB3LYP) =  -900.974414870     A.U. after   16 cycles
 SCF Done:  E(RB3LYP) =  -900.984565688     A.U. after   13 cycles
 SCF Done:  E(RB3LYP) =  -900.984953388     A.U. after   12 cycles
 SCF Done:  E(RB3LYP) =  -900.984972165     A.U. after   10 cycles
 SCF Done:  E(RB3LYP) =  -900.984972928     A.U. after    9 cycles
 Optimization completed.
    -- Stationary point found.
 Normal termination of Gaussian 09 at Mon Jan  9 17:39:38 2023.

 ----------------------------------------------------------------------
 #N Geom=AllCheck Guess=TCheck SCRF=Check GenChk RB3LYP/6-311+G(d,p) Fr
 eq
 ----------------------------------------------------------------------

 Structure from the checkpoint file:  "substitutedquinolines3_Marder.chk"
 -------------------
 Title Card Required
 -------------------
 Charge =  0 Multiplicity = 1

                         Standard orientation:
 ---------------------------------------------------------------------
 Center     Atomic      Atomic             Coordinates (Angstroms)
 Number     Number       Type             X           Y           Z
 ---------------------------------------------------------------------
      1          6           0       -1.694853    1.405520    0.000001
      2          6           0       -0.352797    1.700575    0.000002
      3          6           0        0.618852    0.668256   -0.000004
      4          6           0        0.177490   -0.687931   -0.000004
      5          6           0       -1.209508   -0.976839   -0.000002
      6          6           0       -2.112509    0.056255   -0.000002
      7          1           0       -2.437861    2.192763    0.000005
      8          1           0       -0.004774    2.726389    0.000004
      9          6           0        1.179181   -1.692108    0.000001
     10          1           0       -1.547932   -2.006025   -0.000001
     11          6           0        2.497383   -1.324728   -0.000001
     12          6           0        2.846438    0.058152   -0.000027
     13          1           0        0.890559   -2.738239    0.000012
     14          1           0        3.282274   -2.072730    0.000016
     15          7           0        1.938776    1.012697   -0.000005
     16          6           0        4.296889    0.465239    0.000016
     17          1           0        4.813554    0.071126    0.881058
     18          1           0        4.813516    0.071385   -0.881165
     19          1           0        4.376658    1.551433    0.000167
     20         17           0       -3.837460   -0.289373    0.000003
 ---------------------------------------------------------------------

 SCF Done:  E(RB3LYP) =  -900.984972928     A.U. after    1 cycles

 The electronic state is 1-A.
 Alpha  occ. eigenvalues -- -101.55889 -14.31646 -10.24803 -10.22921 -10.22294
 Alpha  occ. eigenvalues --  -10.20565 -10.20498 -10.19879 -10.19814 -10.19396
 Alpha  occ. eigenvalues --  -10.19120 -10.17380  -9.47344  -7.23802  -7.22829
 Alpha  occ. eigenvalues --   -7.22795  -0.96008  -0.89917  -0.84443  -0.82313
 Alpha  occ. eigenvalues --   -0.77706  -0.75730  -0.71173  -0.65587  -0.62255
 Alpha  occ. eigenvalues --   -0.61872  -0.54704  -0.52798  -0.50984  -0.47232
 Alpha  occ. eigenvalues --   -0.45928  -0.45301  -0.44627  -0.42940  -0.41697
 Alpha  occ. eigenvalues --   -0.41657  -0.39126  -0.38580  -0.37903  -0.37152
 Alpha  occ. eigenvalues --   -0.32500  -0.32242  -0.32071  -0.26943  -0.26137
 Alpha  occ. eigenvalues --   -0.24501
 Alpha virt. eigenvalues --   -0.07015  -0.03854  -0.01053  -0.00291   0.00761
 Alpha virt. eigenvalues --    0.01167   0.01394   0.03262   0.03644   0.03791
 Alpha virt. eigenvalues --    0.04517   0.05911   0.05943   0.05954   0.06386

 Mulliken charges:
               1
     1  C   -0.587283
     2  C   -0.157923
     3  C   -1.391893
     4  C    0.670024
     5  C   -0.261970
     6  C    0.824802
     7  H    0.150677
     8  H    0.137193
     9  C   -0.258681
    10  H    0.137894
    11  C   -0.002315
    12  C   -0.015562
    13  H    0.127745
    14  H    0.131053
    15  N    0.076119
    16  C   -0.475360
    17  H    0.157606
    18  H    0.157622
    19  H    0.163612
    20  Cl   0.416640
 Sum of Mulliken charges =   0.00000

 Dipole moment (field-independent basis, Debye):
    X=              1.8192    Y=             -1.5210    Z=              0.0000  Tot=              2.3713
 Quadrupole moment (field-independent basis, Debye-Ang):
   XX=            -75.2855   YY=            -71.3901   ZZ=            -80.4995
   XY=             -5.7811   XZ=              0.0000   YZ=              0.0000

  Exact polarizability: 220.698  -7.885 132.091  -0.096   0.007  73.165
 Approx polarizability: 330.335 -17.419 231.664  -0.001   0.000 114.253

 ESP charges:
               1
     1  C   -0.034011
     2  C   -0.278188
     3  C    0.532629
     4  C   -0.082069
     5  C   -0.140965
     6  C    0.070547
     7  H    0.100902
     8  H    0.146482
     9  C    0.008038
    10  H    0.119775
    11  C   -0.382832
    12  C    0.596677
    13  H    0.104167
    14  H    0.144899
    15  N   -0.720576
    16  C   -0.209549
    17  H    0.047581
    18  H    0.047567
    19  H    0.070412
    20  Cl  -0.141485
 Sum of ESP charges =   0.00000

 Summary of Natural Population Analysis:

                                       Natural Population
                Natural  -----------------------------------------------
    Atom  No    Charge         Core      Valence    Rydberg      Total
 -----------------------------------------------------------------------
      C    1   -0.21754      1.99899     4.19950    0.01905     6.21754
      C    2   -0.16605      1.99908     4.14834    0.01863     6.16605
      C    3    0.16810      1.99895     3.80900    0.02396     5.83190
      C    4   -0.08357      1.99896     4.06939    0.01522     6.08357
      C    5   -0.20661      1.99889     4.18959    0.01813     6.20661
      C    6   -0.03613      1.99858     4.01470    0.02285     6.03613
      H    7    0.22493      0.00000     0.77342    0.00165     0.77507
      H    8    0.22478      0.00000     0.77300    0.00222     0.77522
      C    9   -0.13619      1.99908     4.11964    0.01746     6.13619
      H   10    0.22024      0.00000     0.77633    0.00343     0.77976
      C   11   -0.23703      1.99905     4.22182    0.01616     6.23703
      C   12    0.23805      1.99916     3.73712    0.02568     5.76195
      H   13    0.21003      0.00000     0.78818    0.00178     0.78997
      H   14    0.21232      0.00000     0.78613    0.00155     0.78768
      N   15   -0.46399      1.99931     5.44217    0.02251     7.46399
      C   16   -0.60608      1.99930     4.59696    0.00983     6.60608
      H   17    0.21318      0.00000     0.78548    0.00133     0.78682
      H   18    0.21319      0.00000     0.78548    0.00133     0.78681
      H   19    0.22614      0.00000     0.77181    0.00205     0.77386
     Cl   20    0.00222      9.99962     6.97858    0.01958    16.99778
 =======================================================================
   * Total *    0.00000     31.98896    59.76664    0.24440    92.00000

                      1                      2                      3
                      A                      A                      A
 Frequencies --     61.7586                78.2882               167.2245
 Red. masses --      1.2879                 2.6799                 3.9140
 Frc consts  --      0.0029                 0.0097                 0.0645
 IR Inten    --      0.1936                 0.0365                 1.3065

                      4                      5                      6
                      A                      A                      A
 Frequencies --    194.1957               196.9637               300.6613
 Red. masses --      6.0662                 5.0359                 4.5376
 Frc consts  --      0.1348                 0.1151                 0.2417
 IR Inten    --      0.2597                 4.3958                 2.1951

                      7                      8                      9
                      A                      A                      A
 Frequencies --    342.9574               359.0247               409.6385
 Red. masses --      4.2032                 6.5611                 3.6529
 Frc consts  --      0.2913                 0.4983                 0.3611
 IR Inten    --      2.1603                 2.5993                 2.5800

                     10                     11                     12
                      A                      A                      A
 Frequencies --    460.4759               494.7672               541.2810
 Red. masses --      3.6059                 3.3154                 6.7753
 Frc consts  --      0.4505                 0.4782                 1.1696
 IR Inten    --      6.5949                 3.2109                 0.5310

                     13                     14                     15
                      A                      A                      A
 Frequencies --    546.3376               549.7702               655.1559
 Red. masses --      5.8856                 3.1204                 7.6436
 Frc consts  --      1.0350                 0.5557                 1.9330
 IR Inten    --     10.8338                 1.0180                 4.4613

                     16                     17                     18
                      A                      A                      A
 Frequencies --    664.1352               738.9652               780.6208
 Red. masses --      3.4961                 6.1602                 2.5764
 Frc consts  --      0.9086                 1.9820                 0.9250
 IR Inten    --      2.5340                 9.8055                 0.2542

                     19                     20                     21
                      A                      A                      A
 Frequencies --    815.3615               822.8705               847.6644
 Red. masses --      5.0884                 1.3398                 1.8360
 Frc consts  --      1.9931                 0.5345                 0.7773
 IR Inten    --     21.2949                 9.6354                40.7051

                     22                     23                     24
                      A                      A                      A
 Frequencies --    892.7967               911.4321               963.4420
 Red. masses --      1.5081                 4.4112                 3.2256
 Frc consts  --      0.7082                 2.1590                 1.7641
 IR Inten    --     26.2412                17.0117                12.9781

                     25                     26                     27
                      A                      A                      A
 Frequencies --    985.3396               994.2172              1024.0752
 Red. masses --      1.3089                 1.3194                 1.8342
 Frc consts  --      0.7487                 0.7684                 1.1333
 IR Inten    --      0.2550                 1.3924                12.8997

                     28                     29                     30
                      A                      A                      A
 Frequencies --   1056.0832              1086.8433              1142.3740
 Red. masses --      1.5919                 2.2734                 1.5036
 Frc consts  --      1.0461                 1.5822                 1.1561
 IR Inten    --      2.2982                34.7245                 6.9419

                     31                     32                     33
                      A                      A                      A
 Frequencies --   1170.1669              1217.6739              1242.3047
 Red. masses --      1.1636                 2.7026                 2.2087
 Frc consts  --      0.9387                 2.3610                 2.0084
 IR Inten    --      0.4064                13.3023                11.7296

                     34                     35                     36
                      A                      A                      A
 Frequencies --   1277.9344              1329.8306              1368.5674
 Red. masses --      1.7260                 2.9783                 3.5711
 Frc consts  --      1.6607                 3.1032                 3.9408
 IR Inten    --      0.5746                22.2576                20.8894

                     37                     38                     39
                      A                      A                      A
 Frequencies --   1391.7653              1406.8152              1414.0778
 Red. masses --      5.7938                 1.3089                 3.1527
 Frc consts  --      6.6122                 1.5262                 3.7143
 IR Inten    --      0.0685                 7.7864                 7.2176

                     40                     41                     42
                      A                      A                      A
 Frequencies --   1476.4314              1485.2461              1501.8002
 Red. masses --      1.1867                 1.0441                 2.4504
 Frc consts  --      1.5241                 1.3571                 3.2561
 IR Inten    --      9.8171                 8.4691                 4.4064

                     43                     44                     45
                      A                      A                      A
 Frequencies --   1523.7419              1593.3096              1638.4516
 Red. masses --      3.4709                 7.0517                 6.2894
 Frc consts  --      4.7480                10.5473                 9.9478
 IR Inten    --     69.8352                14.0725                82.0233

                     46                     47                     48
                      A                      A                      A
 Frequencies --   1650.7627              3025.8391              3073.7252
 Red. masses --      6.6715                 1.0390                 1.0996
 Frc consts  --     10.7113                 5.6045                 6.1211
 IR Inten    --     11.4312                20.4565                14.1817

                     49                     50                     51
                      A                      A                      A
 Frequencies --   3135.2254              3162.3357              3182.1907
 Red. masses --      1.0992                 1.0877                 1.0959
 Frc consts  --      6.3658                 6.4087                 6.5385
 IR Inten    --      7.3160                 4.4442                13.7999

                     52                     53                     54
                      A                      A                      A
 Frequencies --   3188.1314              3190.2230              3205.3080
 Red. masses --      1.0916                 1.0883                 1.0959
 Frc consts  --      6.5371                 6.5257                 6.6339
 IR Inten    --      3.6077                 0.0752                 2.7943

 - Thermochemistry -
 -------------------
 Temperature   298.150 Kelvin.  Pressure   1.00000 Atm.
 Atom     1 has atomic number  6 and mass  12.00000

 Molecular mass:   177.03453 amu.
 Principal axes and moments of inertia in atomic units:
                           1         2         3
     Eigenvalues --   673.268824198.938994861.03135
           X            0.99999  -0.00513   0.00000
           Y            0.00513   0.99999   0.00000
           Z            0.00000   0.00000   1.00000
 This molecule is an asymmetric top.
 Rotational symmetry number  1.
 Warning -- assumption of classical behavior for rotation
           may cause significant error
 Rotational temperatures (Kelvin)      0.12865     0.02063     0.01782
 Rotational constants (GHZ):           2.68057     0.42981     0.37127
 Zero-point vibrational energy     400369.7 (Joules/Mol)
                                   95.69064 (Kcal/Mol)
 Warning -- explicit consideration of  14 degrees of freedom as
           vibrations may cause significant error
 Vibrational temperatures:     88.86   112.64   240.60   279.40   283.39
          (Kelvin)            432.58   493.44   516.56   589.38   662.52
                              711.86   778.78   786.06   791.00   942.62
                              955.54  1063.20  1123.14  1173.12  1183.93
                             1219.60  1284.53  1311.35  1386.18  1417.68
                             1430.46  1473.41  1519.47  1563.72  1643.62
                             1683.61  1751.96  1787.40  1838.66  1913.33
                             1969.06  2002.44  2024.09  2034.54  2124.25
                             2136.94  2160.75  2192.32  2292.41  2357.36
                             2375.08  4353.50  4422.40  4510.88  4549.89
                             4578.46  4587.00  4590.01  4611.72

 Zero-point correction=                           0.152493 (Hartree/Particle)
 Thermal correction to Energy=                    0.162283
 Thermal correction to Enthalpy=                  0.163227
 Thermal correction to Gibbs Free Energy=         0.116540
 Sum of electronic and zero-point Energies=           -900.832480
 Sum of electronic and thermal Energies=              -900.822690
 Sum of electronic and thermal Enthalpies=            -900.821746
 Sum of electronic and thermal Free Energies=         -900.868432

                     E (Thermal)             CV                S
                      KCal/Mol        Cal/Mol-Kelvin    Cal/Mol-Kelvin
 Total                  101.834             38.027             98.260
 Electronic               0.000              0.000              0.000
 Translational            0.889              2.981             41.421
 Rotational               0.889              2.981             30.997
 Vibrational            100.057             32.066             25.842
 Vibration     1          0.597              1.973              4.400
 Vibration     2          0.600              1.964              3.933
 Vibration     3          0.624              1.883              2.466
 Vibration     4          0.635              1.848              2.187
 Vibration     5          0.636              1.844              2.161
 Vibration     6          0.693              1.672              1.413
 Vibration     7          0.722              1.590              1.198
 Vibration     8          0.734              1.557              1.126
 Vibration     9          0.774              1.449              0.928
 Vibration    10          0.818              1.338              0.765
 Vibration    11          0.850              1.262              0.671
 Vibration    12          0.896              1.159              0.563
 Vibration    13          0.902              1.148              0.552
 Vibration    14          0.905              1.140              0.545

 Optimization completed.
    -- Stationary point found.
 Normal termination of Gaussian 09 at Mon Jan  9 17:43:05 2023.
