 Gaussian 09, Revision D.01,
 Gaussian 09:  ES64L-G09RevD.01 24-Apr-2013

 ----------------------------------------------------------------------
 # opt freq b3lyp/6-311+g(d,p) geom=connectivity pop=(hirshfeld,chelpg,
 mbs,npa)
 ----------------------------------------------------------------------

 -------------------
 Title Card Required
 -------------------
 Symbolic Z-matrix:
 Charge =  0 Multiplicity = 1

 SCF Done:  E(RB3LYP) =  -624.823305688     A.U. after   14 cycles
 SCF Done:  E(RB3LYP) =  -624.827528585     A.U. after   13 cycles
 SCF Done:  E(RB3LYP) =  -624.828261565     A.U. after   12 cycles
 SCF Done:  E(RB3LYP) =  -624.828296856     A.U. after   10 cycles
 SCF Done:  E(RB3LYP) =  -624.828298538     A.U. after    9 cycles
 SCF Done:  E(RB3LYP) =  -624.828301239     A.U. after   10 cycles
 SCF Done:  E(RB3LYP) =  -624.795010527     A.U. after   14 cycles
 SCF Done:  E(RB3LYP) =  -624.828301756     A.U. after    7 cycles
 SCF Done:  E(RB3LYP) =  -624.828088619     A.U. after   13 cycles
 SCF Done:  E(RB3LYP) =  -624.828314821     A.U. after   10 cycles
 SCF Done:  E(RB3LYP) =  -624.838132086     A.U. after   14 cycles
 SCF Done:  E(RB3LYP) =  -624.838132474     A.U. after    8 cycles
 SCF Done:  E(RB3LYP) =  -624.838134201     A.U. after   10 cycles
 SCF Done:  E(RB3LYP) =  -624.838115802     A.U. after   12 cycles
 SCF Done:  E(RB3LYP) =  -624.822207384     A.U. after   13 cycles
 SCF Done:  E(RB3LYP) =  -624.838139803     A.U. after    9 cycles
 SCF Done:  E(RB3LYP) =  -624.838139075     A.U. after   12 cycles
 SCF Done:  E(RB3LYP) =  -624.838143815     A.U. after   12 cycles
 SCF Done:  E(RB3LYP) =  -624.838143945     A.U. after    8 cycles
 Optimization completed.
    -- Stationary point found.
 Normal termination of Gaussian 09 at Mon Jan  9 18:02:44 2023.

 ----------------------------------------------------------------------
 #N Geom=AllCheck Guess=TCheck SCRF=Check GenChk RB3LYP/6-311+G(d,p) Fr
 eq
 ----------------------------------------------------------------------

 Structure from the checkpoint file:  "Traceless9_Smith.chk"
 -------------------
 Title Card Required
 -------------------
 Charge =  0 Multiplicity = 1

                         Standard orientation:
 ---------------------------------------------------------------------
 Center     Atomic      Atomic             Coordinates (Angstroms)
 Number     Number       Type             X           Y           Z
 ---------------------------------------------------------------------
      1          6           0       -0.283749    0.196876   -0.034988
      2          6           0        0.078079    1.543499   -0.025477
      3          6           0        1.433141    1.867499   -0.001570
      4          6           0        2.405064    0.875130    0.015154
      5          6           0        2.041380   -0.480957    0.004948
      6          6           0        0.679053   -0.809028   -0.017587
      7          1           0        1.735916    2.908291    0.001471
      8          1           0        3.455676    1.146026    0.037067
      9          1           0        0.374650   -1.849248   -0.026476
     10          7           0        3.009530   -1.479158    0.071395
     11          1           0        2.731317   -2.395925   -0.244623
     12          1           0        3.936397   -1.224580   -0.234676
     13          1           0       -0.678055    2.316434   -0.045428
     14          6           0       -1.738743   -0.185697   -0.004290
     15          9           0       -2.186099   -0.370695    1.265437
     16          9           0       -1.982514   -1.342838   -0.665042
     17          9           0       -2.532271    0.758998   -0.556421
 ---------------------------------------------------------------------

 SCF Done:  E(RB3LYP) =  -624.838143945     A.U. after    1 cycles

 The electronic state is 1-A.
 Alpha  occ. eigenvalues --  -24.71260 -24.71231 -24.70747 -14.33984 -10.42956
 Alpha  occ. eigenvalues --  -10.23769 -10.21027 -10.19355 -10.19319 -10.19004
 Alpha  occ. eigenvalues --  -10.18759  -1.31682  -1.23081  -1.22548  -0.94387
 Alpha  occ. eigenvalues --   -0.87093  -0.79243  -0.75545  -0.71058  -0.64321
 Alpha  occ. eigenvalues --   -0.63316  -0.59493  -0.59284  -0.58101  -0.53579
 Alpha  occ. eigenvalues --   -0.51424  -0.49873  -0.47477  -0.47317  -0.45882
 Alpha  occ. eigenvalues --   -0.45014  -0.43677  -0.42788  -0.41563  -0.41421
 Alpha  occ. eigenvalues --   -0.40639  -0.38464  -0.36711  -0.33652  -0.27823
 Alpha  occ. eigenvalues --   -0.23119
 Alpha virt. eigenvalues --   -0.04238  -0.02023  -0.01071   0.00906   0.01792
 Alpha virt. eigenvalues --    0.03789   0.04080   0.04714   0.05384   0.06747
 Alpha virt. eigenvalues --    0.07153   0.07356   0.08164   0.10296   0.10675

 Mulliken charges:
               1
     1  C   -0.439970
     2  C   -0.163247
     3  C   -0.472685
     4  C    0.391995
     5  C   -0.598807
     6  C    0.525904
     7  H    0.131299
     8  H    0.109445
     9  H    0.120999
    10  N   -0.351627
    11  H    0.231810
    12  H    0.230705
    13  H    0.138230
    14  C    0.475750
    15  F   -0.077725
    16  F   -0.123462
    17  F   -0.128613
 Sum of Mulliken charges =   0.00000

 Dipole moment (field-independent basis, Debye):
    X=              4.1240    Y=             -0.2204    Z=             -0.9621  Tot=              4.2404
 Quadrupole moment (field-independent basis, Debye-Ang):
   XX=            -57.4867   YY=            -55.3544   ZZ=            -67.7855
   XY=             -3.0210   XZ=             -3.1113   YZ=              1.9581

  Exact polarizability: 113.417  -6.432 103.296   0.433  -0.166  57.749
 Approx polarizability: 168.727 -11.028 169.125   1.736  -0.664  86.006

 ESP charges:
               1
     1  C   -0.058843
     2  C   -0.144071
     3  C   -0.040991
     4  C   -0.245657
     5  C    0.424265
     6  C   -0.263187
     7  H    0.091012
     8  H    0.134800
     9  H    0.159018
    10  N   -0.817674
    11  H    0.339891
    12  H    0.339195
    13  H    0.109210
    14  C    0.758489
    15  F   -0.255770
    16  F   -0.273395
    17  F   -0.256293
 Sum of ESP charges =   0.00000

 Summary of Natural Population Analysis:

                                       Natural Population
                Natural  -----------------------------------------------
    Atom  No    Charge         Core      Valence    Rydberg      Total
 -----------------------------------------------------------------------
      C    1   -0.12698      1.99890     4.10987    0.01821     6.12698
      C    2   -0.22157      1.99907     4.20438    0.01812     6.22157
      C    3   -0.17568      1.99918     4.15882    0.01767     6.17568
      C    4   -0.23749      1.99907     4.22153    0.01690     6.23749
      C    5    0.17238      1.99902     3.80947    0.01913     5.82762
      C    6   -0.22949      1.99899     4.21399    0.01651     6.22949
      H    7    0.21065      0.00000     0.78788    0.00147     0.78935
      H    8    0.20548      0.00000     0.79278    0.00174     0.79452
      H    9    0.21922      0.00000     0.77869    0.00209     0.78078
      N   10   -0.78766      1.99942     5.77116    0.01708     7.78766
      H   11    0.37770      0.00000     0.62000    0.00230     0.62230
      H   12    0.37682      0.00000     0.62086    0.00232     0.62318
      H   13    0.22477      0.00000     0.77359    0.00164     0.77523
      C   14    1.06931      1.99910     2.87149    0.06010     4.93069
      F   15   -0.35893      1.99992     7.35257    0.00644     9.35893
      F   16   -0.36091      1.99992     7.35446    0.00653     9.36091
      F   17   -0.35763      1.99992     7.35121    0.00651     9.35763
 =======================================================================
   * Total *    0.00000     21.99250    59.79275    0.21475    82.00000

                      1                      2                      3
                      A                      A                      A
 Frequencies --     19.7907               127.1971               174.3046
 Red. masses --      8.4039                 6.3974                 6.9487
 Frc consts  --      0.0019                 0.0610                 0.1244
 IR Inten    --      0.0557                 0.3823                 0.6046

                      4                      5                      6
                      A                      A                      A
 Frequencies --    219.5974               312.5531               315.6730
 Red. masses --      3.6070                 1.0546                 6.6236
 Frc consts  --      0.1025                 0.0607                 0.3889
 IR Inten    --      4.8381                14.4174                 5.8297

                      7                      8                      9
                      A                      A                      A
 Frequencies --    331.1053               355.8147               436.6914
 Red. masses --      6.7855                 6.8202                 4.2126
 Frc consts  --      0.4383                 0.5087                 0.4733
 IR Inten    --      0.1533                 0.9956                 1.1180

                     10                     11                     12
                      A                      A                      A
 Frequencies --    458.1428               511.5349               531.8612
 Red. masses --      3.2110                 2.2834                 4.4078
 Frc consts  --      0.3971                 0.3520                 0.7346
 IR Inten    --     16.8858               163.5513                64.4283

                     13                     14                     15
                      A                      A                      A
 Frequencies --    546.9841               576.8150               647.5268
 Red. masses --      2.7583                 9.5927                 4.9679
 Frc consts  --      0.4862                 1.8805                 1.2273
 IR Inten    --     77.9331                 0.6415                 5.2189

                     16                     17                     18
                      A                      A                      A
 Frequencies --    666.7937               708.7734               746.9699
 Red. masses --      8.8697                 2.0487                 9.9639
 Frc consts  --      2.3235                 0.6064                 3.2756
 IR Inten    --     12.0343                26.1002                 2.6395

                     19                     20                     21
                      A                      A                      A
 Frequencies --    798.8988               883.6461               898.4457
 Red. masses --      1.5502                 1.6415                 1.4031
 Frc consts  --      0.5829                 0.7552                 0.6673
 IR Inten    --     42.5444                23.9460                 3.7271

                     22                     23                     24
                      A                      A                      A
 Frequencies --    908.7913               985.5348              1009.5215
 Red. masses --      4.7778                 1.3061                 6.1444
 Frc consts  --      2.3249                 0.7474                 3.6895
 IR Inten    --     46.7292                 0.1901                 9.9975

                     25                     26                     27
                      A                      A                      A
 Frequencies --   1073.7480              1080.6639              1101.5614
 Red. masses --      1.8807                 2.4698                11.7278
 Frc consts  --      1.2775                 1.6994                 8.3846
 IR Inten    --     41.7464                80.3968               281.8335

                     28                     29                     30
                      A                      A                      A
 Frequencies --   1137.5171              1151.2699              1195.6248
 Red. masses --      1.4564                 4.0269                 1.1168
 Frc consts  --      1.1103                 3.1446                 0.9406
 IR Inten    --     33.6593               166.3432                 3.8328

                     31                     32                     33
                      A                      A                      A
 Frequencies --   1265.3463              1338.4649              1346.0020
 Red. masses --      2.7425                 1.9674                 2.9427
 Frc consts  --      2.5871                 2.0767                 3.1411
 IR Inten    --    149.6018               134.6098               154.0338

                     34                     35                     36
                      A                      A                      A
 Frequencies --   1358.6900              1493.4245              1530.1243
 Red. masses --      3.8211                 3.1894                 2.5994
 Frc consts  --      4.1560                 4.1911                 3.5857
 IR Inten    --     19.6769                66.1474                22.3291

                     37                     38                     39
                      A                      A                      A
 Frequencies --   1631.8990              1650.0966              1666.8363
 Red. masses --      5.6881                 2.7863                 1.4713
 Frc consts  --      8.9249                 4.4700                 2.4084
 IR Inten    --     14.7720                13.5248               161.4827

                     40                     41                     42
                      A                      A                      A
 Frequencies --   3160.5600              3180.7404              3182.7142
 Red. masses --      1.0881                 1.0909                 1.0922
 Frc consts  --      6.4041                 6.5026                 6.5188
 IR Inten    --     10.0783                 7.2464                 7.5904

                     43                     44                     45
                      A                      A                      A
 Frequencies --   3212.3848              3577.1679              3676.6678
 Red. masses --      1.0935                 1.0472                 1.0999
 Frc consts  --      6.6486                 7.8954                 8.7605
 IR Inten    --      1.2381                30.1395                21.2638

 - Thermochemistry -
 -------------------
 Temperature   298.150 Kelvin.  Pressure   1.00000 Atm.
 Atom     1 has atomic number  6 and mass  12.00000

 Molecular mass:   161.04523 amu.
 Principal axes and moments of inertia in atomic units:
                           1         2         3
     Eigenvalues --   858.523502438.336492976.05140
           X            0.99991  -0.01334  -0.00251
           Y            0.01335   0.99989   0.00574
           Z            0.00243  -0.00577   0.99998
 This molecule is an asymmetric top.
 Rotational symmetry number  1.
 Warning -- assumption of classical behavior for rotation
           may cause significant error
 Rotational temperatures (Kelvin)      0.10089     0.03552     0.02910
 Rotational constants (GHZ):           2.10215     0.74015     0.60642
 Zero-point vibrational energy     318113.8 (Joules/Mol)
                                   76.03102 (Kcal/Mol)
 Warning -- explicit consideration of  14 degrees of freedom as
           vibrations may cause significant error
 Vibrational temperatures:     28.47   183.01   250.79   315.95   449.69
          (Kelvin)            454.18   476.39   511.94   628.30   659.16
                              735.98   765.23   786.99   829.91   931.65
                              959.37  1019.77  1074.72  1149.44  1271.37
                             1292.66  1307.55  1417.96  1452.47  1544.88
                             1554.83  1584.90  1636.63  1656.42  1720.24
                             1820.55  1925.75  1936.59  1954.85  2148.70
                             2201.50  2347.94  2374.12  2398.20  4547.34
                             4576.37  4579.21  4621.90  5146.74  5289.90

 Zero-point correction=                           0.121163 (Hartree/Particle)
 Thermal correction to Energy=                    0.130550
 Thermal correction to Enthalpy=                  0.131494
 Thermal correction to Gibbs Free Energy=         0.085471
 Sum of electronic and zero-point Energies=           -624.716981
 Sum of electronic and thermal Energies=              -624.707594
 Sum of electronic and thermal Enthalpies=            -624.706650
 Sum of electronic and thermal Free Energies=         -624.752673

                     E (Thermal)             CV                S
                      KCal/Mol        Cal/Mol-Kelvin    Cal/Mol-Kelvin
 Total                   81.921             36.097             96.864
 Electronic               0.000              0.000              0.000
 Translational            0.889              2.981             41.138
 Rotational               0.889              2.981             30.211
 Vibrational             80.144             30.136             25.514
 Vibration     1          0.593              1.986              6.655
 Vibration     2          0.611              1.926              2.988
 Vibration     3          0.627              1.874              2.389
 Vibration     4          0.647              1.811              1.962
 Vibration     5          0.701              1.650              1.349
 Vibration     6          0.703              1.644              1.332
 Vibration     7          0.713              1.613              1.255
 Vibration     8          0.731              1.563              1.140
 Vibration     9          0.797              1.390              0.837
 Vibration    10          0.816              1.343              0.772
 Vibration    11          0.867              1.224              0.630
 Vibration    12          0.887              1.180              0.583
 Vibration    13          0.902              1.146              0.550
 Vibration    14          0.933              1.081              0.491

 Optimization completed.
    -- Stationary point found.
 Normal termination of Gaussian 09 at Mon Jan  9 18:04:40 2023.
