 Gaussian 09, Revision D.01,
 Gaussian 09:  ES64L-G09RevD.01 24-Apr-2013

 ----------------------------------------------------------------------
 # opt freq b3lyp/6-311+g(d,p) geom=connectivity pop=(hirshfeld,chelpg,
 mbs,npa)
 ----------------------------------------------------------------------

 -------------------
 Title Card Required
 -------------------
 Symbolic Z-matrix:
 Charge =  0 Multiplicity = 1

 SCF Done:  E(RB3LYP) =  -362.916976057     A.U. after   14 cycles
 SCF Done:  E(RB3LYP) =  -362.919990374     A.U. after   12 cycles
 SCF Done:  E(RB3LYP) =  -362.920194090     A.U. after   11 cycles
 SCF Done:  E(RB3LYP) =  -362.920215513     A.U. after   10 cycles
 SCF Done:  E(RB3LYP) =  -362.920246441     A.U. after   10 cycles
 SCF Done:  E(RB3LYP) =  -362.919106582     A.U. after   13 cycles
 SCF Done:  E(RB3LYP) =  -362.920317760     A.U. after   11 cycles
 SCF Done:  E(RB3LYP) =  -362.879819093     A.U. after   13 cycles
 SCF Done:  E(RB3LYP) =  -362.920325021     A.U. after    8 cycles
 SCF Done:  E(RB3LYP) =  -362.920866917     A.U. after   14 cycles
 SCF Done:  E(RB3LYP) =  -362.930632246     A.U. after   13 cycles
 SCF Done:  E(RB3LYP) =  -362.930788939     A.U. after   12 cycles
 SCF Done:  E(RB3LYP) =  -362.931322573     A.U. after   12 cycles
 SCF Done:  E(RB3LYP) =  -362.931411360     A.U. after   10 cycles
 SCF Done:  E(RB3LYP) =  -362.931496021     A.U. after   10 cycles
 SCF Done:  E(RB3LYP) =  -362.931557086     A.U. after   10 cycles
 SCF Done:  E(RB3LYP) =  -362.931598437     A.U. after   11 cycles
 SCF Done:  E(RB3LYP) =  -362.931602043     A.U. after   10 cycles
 SCF Done:  E(RB3LYP) =  -362.931602397     A.U. after    8 cycles
 Optimization completed.
    -- Stationary point found.
 Normal termination of Gaussian 09 at Mon Jan  9 17:53:39 2023.

 ----------------------------------------------------------------------
 #N Geom=AllCheck Guess=TCheck SCRF=Check GenChk RB3LYP/6-311+G(d,p) Fr
 eq
 ----------------------------------------------------------------------

 Structure from the checkpoint file:  "Traceless6_Smith.chk"
 -------------------
 Title Card Required
 -------------------
 Charge =  0 Multiplicity = 1

                         Standard orientation:
 ---------------------------------------------------------------------
 Center     Atomic      Atomic             Coordinates (Angstroms)
 Number     Number       Type             X           Y           Z
 ---------------------------------------------------------------------
      1          6           0       -0.723205    1.190108    0.000333
      2          6           0       -1.417750   -0.017419   -0.002519
      3          6           0       -0.703099   -1.214193    0.000196
      4          6           0        0.686590   -1.199469    0.006258
      5          6           0        1.399396    0.007902    0.006750
      6          6           0        0.670676    1.201812    0.005780
      7          1           0       -1.246059   -2.151780   -0.001869
      8          1           0        1.227649   -2.140411    0.015510
      9          1           0        1.194084    2.152540    0.014591
     10          7           0        2.803967    0.015982    0.075806
     11          1           0        3.248697   -0.813609   -0.290761
     12          1           0        3.239889    0.851563   -0.287678
     13          1           0       -1.265567    2.131376   -0.002074
     14          8           0       -2.792293   -0.093513   -0.009407
     15          1           0       -3.163772    0.794106   -0.003895
 ---------------------------------------------------------------------

 SCF Done:  E(RB3LYP) =  -362.931602397     A.U. after    1 cycles

 The electronic state is 1-A.
 Alpha  occ. eigenvalues --  -19.15058 -14.32021 -10.22827 -10.21196 -10.17757
 Alpha  occ. eigenvalues --  -10.17477 -10.17358 -10.17177  -1.05959  -0.92136
 Alpha  occ. eigenvalues --   -0.84116  -0.75370  -0.72697  -0.63276  -0.60734
 Alpha  occ. eigenvalues --   -0.55153  -0.52377  -0.50966  -0.45895  -0.44324
 Alpha  occ. eigenvalues --   -0.42778  -0.41269  -0.40561  -0.38106  -0.36708
 Alpha  occ. eigenvalues --   -0.34578  -0.29387  -0.25924  -0.19907
 Alpha virt. eigenvalues --   -0.01869  -0.00274  -0.00035   0.01059   0.02162
 Alpha virt. eigenvalues --    0.02674   0.04626   0.06602   0.07050   0.07177
 Alpha virt. eigenvalues --    0.08457   0.08762   0.09266   0.11229   0.11917

 Mulliken charges:
               1
     1  C    0.060921
     2  C   -0.276674
     3  C    0.136752
     4  C   -0.123399
     5  C   -0.116039
     6  C   -0.143682
     7  H    0.127469
     8  H    0.106298
     9  H    0.103930
    10  N   -0.374418
    11  H    0.221370
    12  H    0.221239
    13  H    0.102560
    14  O   -0.289199
    15  H    0.242871
 Sum of Mulliken charges =   0.00000

 Dipole moment (field-independent basis, Debye):
    X=              1.2608    Y=              1.3712    Z=             -1.0309  Tot=              2.1290
 Quadrupole moment (field-independent basis, Debye-Ang):
   XX=            -41.7166   YY=            -40.7101   ZZ=            -52.5339
   XY=             -5.2047   XZ=             -3.9620   YZ=             -0.0226

  Exact polarizability: 111.631  -1.098  88.018   0.176  -0.002  49.215
 Approx polarizability: 171.047  -0.605 146.567   0.854  -0.001  72.072

 ESP charges:
               1
     1  C   -0.311869
     2  C    0.430941
     3  C   -0.220664
     4  C   -0.230515
     5  C    0.347361
     6  C   -0.195654
     7  H    0.152495
     8  H    0.138828
     9  H    0.143029
    10  N   -0.799753
    11  H    0.324901
    12  H    0.315080
    13  H    0.132837
    14  O   -0.643373
    15  H    0.416358
 Sum of ESP charges =   0.00000

 Summary of Natural Population Analysis:

                                       Natural Population
                Natural  -----------------------------------------------
    Atom  No    Charge         Core      Valence    Rydberg      Total
 -----------------------------------------------------------------------
      C    1   -0.26345      1.99907     4.24672    0.01766     6.26345
      C    2    0.27994      1.99875     3.69773    0.02358     5.72006
      C    3   -0.23158      1.99907     4.21455    0.01795     6.23158
      C    4   -0.23061      1.99908     4.21511    0.01643     6.23061
      C    5    0.13841      1.99898     3.84378    0.01882     5.86159
      C    6   -0.23441      1.99908     4.21838    0.01695     6.23441
      H    7    0.21822      0.00000     0.78001    0.00177     0.78178
      H    8    0.20232      0.00000     0.79583    0.00186     0.79768
      H    9    0.20206      0.00000     0.79602    0.00192     0.79794
      N   10   -0.80029      1.99944     5.78245    0.01839     7.80029
      H   11    0.36884      0.00000     0.62867    0.00249     0.63116
      H   12    0.36840      0.00000     0.62912    0.00248     0.63160
      H   13    0.20076      0.00000     0.79718    0.00205     0.79924
      O   14   -0.68503      1.99976     6.67285    0.01242     8.68503
      H   15    0.46642      0.00000     0.52916    0.00443     0.53358
 =======================================================================
   * Total *    0.00000     15.99323    41.84756    0.15920    58.00000

                      1                      2                      3
                      A                      A                      A
 Frequencies --    148.9084               223.2501               246.4781
 Red. masses --      4.8953                 1.0444                 1.1050
 Frc consts  --      0.0640                 0.0307                 0.0396
 IR Inten    --      2.9886                20.5970               108.4768

                      4                      5                      6
                      A                      A                      A
 Frequencies --    327.4406               355.0348               420.1999
 Red. masses --      3.8055                 5.2925                 2.9709
 Frc consts  --      0.2404                 0.3931                 0.3091
 IR Inten    --      4.0658                 6.7014                 2.0159

                      7                      8                      9
                      A                      A                      A
 Frequencies --    437.4769               473.0305               510.4881
 Red. masses --      3.2447                 7.4787                 2.0902
 Frc consts  --      0.3659                 0.9859                 0.3209
 IR Inten    --      7.4498                 0.4276                54.7627

                     10                     11                     12
                      A                      A                      A
 Frequencies --    621.7472               659.2620               701.7944
 Red. masses --      1.4200                 6.7967                 3.8479
 Frc consts  --      0.3234                 1.7404                 1.1166
 IR Inten    --    294.4840                 0.3225                 8.6315

                     13                     14                     15
                      A                      A                      A
 Frequencies --    769.4955               799.4637               833.0132
 Red. masses --      4.0094                 1.3015                 1.7534
 Frc consts  --      1.3987                 0.4901                 0.7168
 IR Inten    --     16.2937                10.1648                69.0755

                     16                     17                     18
                      A                      A                      A
 Frequencies --    858.2220               911.0175               946.3221
 Red. masses --      5.8650                 1.3264                 1.3266
 Frc consts  --      2.5452                 0.6486                 0.7000
 IR Inten    --      4.9182                 0.1403                 0.1157

                     19                     20                     21
                      A                      A                      A
 Frequencies --   1022.9423              1081.3012              1144.7576
 Red. masses --      2.6048                 1.4754                 1.2011
 Frc consts  --      1.6059                 1.0163                 0.9274
 IR Inten    --      0.2493                 7.9215                14.5482

                     22                     23                     24
                      A                      A                      A
 Frequencies --   1185.1243              1191.8054              1266.2002
 Red. masses --      1.3637                 1.1136                 2.6769
 Frc consts  --      1.1285                 0.9320                 2.5286
 IR Inten    --    151.9613                 0.4811               145.6546

                     25                     26                     27
                      A                      A                      A
 Frequencies --   1290.4862              1351.2893              1360.3718
 Red. masses --      4.9447                 2.9580                 1.5054
 Frc consts  --      4.8517                 3.1823                 1.6415
 IR Inten    --     14.8140                12.4251                30.5664

                     28                     29                     30
                      A                      A                      A
 Frequencies --   1484.3643              1545.1637              1637.2496
 Red. masses --      2.8599                 2.6812                 6.0096
 Frc consts  --      3.7127                 3.7716                 9.4913
 IR Inten    --     20.1066               228.7048                 2.4674

                     31                     32                     33
                      A                      A                      A
 Frequencies --   1656.2034              1669.5642              3146.9841
 Red. masses --      1.4610                 2.7471                 1.0873
 Frc consts  --      2.3611                 4.5115                 6.3443
 IR Inten    --     41.3901                28.0376                21.2368

                     34                     35                     36
                      A                      A                      A
 Frequencies --   3159.1689              3166.5402              3191.8386
 Red. masses --      1.0888                 1.0936                 1.0931
 Frc consts  --      6.4025                 6.4607                 6.5614
 IR Inten    --     14.8239                13.2019                 4.9332

                     37                     38                     39
                      A                      A                      A
 Frequencies --   3558.2755              3651.5330              3843.2430
 Red. masses --      1.0479                 1.0980                 1.0662
 Frc consts  --      7.8168                 8.6257                 9.2788
 IR Inten    --     12.0435                13.3273                60.7413

 - Thermochemistry -
 -------------------
 Temperature   298.150 Kelvin.  Pressure   1.00000 Atm.
 Atom     1 has atomic number  6 and mass  12.00000

 Molecular mass:   109.05276 amu.
 Principal axes and moments of inertia in atomic units:
                           1         2         3
     Eigenvalues --   322.138361225.972241546.39681
           X            0.99994  -0.00958  -0.00532
           Y            0.00958   0.99995  -0.00005
           Z            0.00532   0.00000   0.99999
 This molecule is an asymmetric top.
 Rotational symmetry number  1.
 Rotational temperatures (Kelvin)      0.26887     0.07065     0.05601
 Rotational constants (GHZ):           5.60238     1.47209     1.16706
 Zero-point vibrational energy     316095.6 (Joules/Mol)
                                   75.54865 (Kcal/Mol)
 Warning -- explicit consideration of   9 degrees of freedom as
           vibrations may cause significant error
 Vibrational temperatures:    214.25   321.21   354.63   471.11   510.82
          (Kelvin)            604.57   629.43   680.58   734.48   894.55
                              948.53  1009.72  1107.13  1150.25  1198.52
                             1234.79  1310.75  1361.54  1471.78  1555.75
                             1647.05  1705.13  1714.74  1821.78  1856.72
                             1944.20  1957.27  2135.67  2223.14  2355.63
                             2382.90  2402.13  4527.80  4545.33  4555.94
                             4592.34  5119.56  5253.73  5529.56

 Zero-point correction=                           0.120394 (Hartree/Particle)
 Thermal correction to Energy=                    0.127620
 Thermal correction to Enthalpy=                  0.128564
 Thermal correction to Gibbs Free Energy=         0.089457
 Sum of electronic and zero-point Energies=           -362.811208
 Sum of electronic and thermal Energies=              -362.803982
 Sum of electronic and thermal Enthalpies=            -362.803038
 Sum of electronic and thermal Free Energies=         -362.842145

                     E (Thermal)             CV                S
                      KCal/Mol        Cal/Mol-Kelvin    Cal/Mol-Kelvin
 Total                   80.083             28.290             82.307
 Electronic               0.000              0.000              0.000
 Translational            0.889              2.981             39.976
 Rotational               0.889              2.981             27.904
 Vibrational             78.305             22.328             14.427
 Vibration     1          0.618              1.904              2.686
 Vibration     2          0.649              1.806              1.933
 Vibration     3          0.661              1.769              1.756
 Vibration     4          0.711              1.621              1.273
 Vibration     5          0.731              1.565              1.144
 Vibration     6          0.783              1.426              0.891
 Vibration     7          0.798              1.388              0.835
 Vibration     8          0.830              1.310              0.729
 Vibration     9          0.866              1.227              0.632

 Optimization completed.
    -- Stationary point found.
 Normal termination of Gaussian 09 at Mon Jan  9 17:54:39 2023.
