 Gaussian 09, Revision D.01,
 Gaussian 09:  ES64L-G09RevD.01 24-Apr-2013

 ----------------------------------------------------------------------
 # opt freq b3lyp/6-311+g(d,p) geom=connectivity pop=(hirshfeld,chelpg,
 mbs,npa)
 ----------------------------------------------------------------------

 -------------------
 Title Card Required
 -------------------
 Symbolic Z-matrix:
 Charge =  0 Multiplicity = 1

 SCF Done:  E(RB3LYP) =  -402.224389107     A.U. after   14 cycles
 SCF Done:  E(RB3LYP) =  -402.229647172     A.U. after   12 cycles
 SCF Done:  E(RB3LYP) =  -402.230008268     A.U. after   11 cycles
 SCF Done:  E(RB3LYP) =  -402.230033236     A.U. after   10 cycles
 SCF Done:  E(RB3LYP) =  -402.230036950     A.U. after    9 cycles
 SCF Done:  E(RB3LYP) =  -402.230046246     A.U. after   10 cycles
 SCF Done:  E(RB3LYP) =  -402.230033136     A.U. after   11 cycles
 SCF Done:  E(RB3LYP) =  -402.230297020     A.U. after   13 cycles
 SCF Done:  E(RB3LYP) =  -402.193242615     A.U. after   13 cycles
 SCF Done:  E(RB3LYP) =  -402.230575902     A.U. after    9 cycles
 SCF Done:  E(RB3LYP) =  -402.239415863     A.U. after   12 cycles
 SCF Done:  E(RB3LYP) =  -402.239951358     A.U. after   12 cycles
 SCF Done:  E(RB3LYP) =  -402.240360314     A.U. after   11 cycles
 SCF Done:  E(RB3LYP) =  -402.240593479     A.U. after   12 cycles
 SCF Done:  E(RB3LYP) =  -402.240640483     A.U. after   11 cycles
 SCF Done:  E(RB3LYP) =  -402.240656713     A.U. after   10 cycles
 SCF Done:  E(RB3LYP) =  -402.240662158     A.U. after   10 cycles
 SCF Done:  E(RB3LYP) =  -402.240662548     A.U. after    8 cycles
 SCF Done:  E(RB3LYP) =  -402.240662655     A.U. after    8 cycles
 Optimization completed.
    -- Stationary point found.
 Normal termination of Gaussian 09 at Mon Jan  9 17:59:11 2023.

 ----------------------------------------------------------------------
 #N Geom=AllCheck Guess=TCheck SCRF=Check GenChk RB3LYP/6-311+G(d,p) Fr
 eq
 ----------------------------------------------------------------------

 Structure from the checkpoint file:  "Traceless7_Smith.chk"
 -------------------
 Title Card Required
 -------------------
 Charge =  0 Multiplicity = 1

                         Standard orientation:
 ---------------------------------------------------------------------
 Center     Atomic      Atomic             Coordinates (Angstroms)
 Number     Number       Type             X           Y           Z
 ---------------------------------------------------------------------
      1          6           0       -0.413383    1.008755    0.001493
      2          6           0       -0.945636   -0.280224   -0.001822
      3          6           0       -0.073393   -1.373514    0.000364
      4          6           0        1.299663   -1.181294    0.006536
      5          6           0        1.849541    0.110492    0.006767
      6          6           0        0.971299    1.195520    0.006010
      7          1           0       -0.492366   -2.372797   -0.001824
      8          1           0        1.958286   -2.044170    0.016379
      9          1           0        1.366315    2.206570    0.014157
     10          7           0        3.241586    0.298427    0.074840
     11          1           0        3.788333   -0.462569   -0.302499
     12          1           0        3.565058    1.187491   -0.279101
     13          1           0       -1.055875    1.879199   -0.000197
     14          8           0       -2.285521   -0.577917   -0.008339
     15          6           0       -3.210420    0.496345   -0.002702
     16          1           0       -4.199673    0.040676   -0.004928
     17          1           0       -3.101269    1.117085    0.894377
     18          1           0       -3.101773    1.126378   -0.893414
 ---------------------------------------------------------------------

 SCF Done:  E(RB3LYP) =  -402.240662655     A.U. after    1 cycles

 The electronic state is 1-A.
 Alpha  occ. eigenvalues --  -19.14791 -14.31828 -10.22437 -10.22267 -10.20915
 Alpha  occ. eigenvalues --  -10.17304 -10.17106 -10.17065 -10.16935  -1.06228
 Alpha  occ. eigenvalues --   -0.91915  -0.83997  -0.75310  -0.74179  -0.68935
 Alpha  occ. eigenvalues --   -0.62072  -0.59198  -0.53780  -0.51936  -0.50550
 Alpha  occ. eigenvalues --   -0.46814  -0.46239  -0.44932  -0.42581  -0.41110
 Alpha  occ. eigenvalues --   -0.39988  -0.38631  -0.36084  -0.34669  -0.32887
 Alpha  occ. eigenvalues --   -0.28483  -0.25582  -0.19567
 Alpha virt. eigenvalues --   -0.01494  -0.00211   0.00647   0.01346   0.02136
 Alpha virt. eigenvalues --    0.02978   0.03509   0.04854   0.04965   0.06487
 Alpha virt. eigenvalues --    0.07434   0.07801   0.08546   0.08898   0.10515

 Mulliken charges:
               1
     1  C    0.263442
     2  C   -0.231619
     3  C   -0.388960
     4  C    0.138287
     5  C   -0.187536
     6  C   -0.113284
     7  H    0.124044
     8  H    0.105301
     9  H    0.101969
    10  N   -0.374257
    11  H    0.221077
    12  H    0.222220
    13  H    0.118431
    14  O   -0.197109
    15  C   -0.236682
    16  H    0.155509
    17  H    0.140128
    18  H    0.139038
 Sum of Mulliken charges =   0.00000

 Dipole moment (field-independent basis, Debye):
    X=              0.5204    Y=              1.3058    Z=             -1.0309  Tot=              1.7432
 Quadrupole moment (field-independent basis, Debye-Ang):
   XX=            -43.5251   YY=            -49.4246   ZZ=            -58.8038
   XY=             -3.6402   XZ=             -4.4023   YZ=             -0.4176

  Exact polarizability: 133.822  -0.915  96.849   0.115   0.007  59.679
 Approx polarizability: 189.948   2.243 162.152   0.782   0.092  88.130

 ESP charges:
               1
     1  C   -0.234715
     2  C    0.403882
     3  C   -0.240358
     4  C   -0.206443
     5  C    0.348052
     6  C   -0.244361
     7  H    0.127594
     8  H    0.141618
     9  H    0.141632
    10  N   -0.802806
    11  H    0.318538
    12  H    0.323943
    13  H    0.128703
    14  O   -0.437014
    15  C    0.203389
    16  H    0.039737
    17  H    0.001733
    18  H   -0.013125
 Sum of ESP charges =   0.00000

 Summary of Natural Population Analysis:

                                       Natural Population
                Natural  -----------------------------------------------
    Atom  No    Charge         Core      Valence    Rydberg      Total
 -----------------------------------------------------------------------
      C    1   -0.27133      1.99907     4.25671    0.01555     6.27133
      C    2    0.28746      1.99875     3.69076    0.02303     5.71254
      C    3   -0.21961      1.99908     4.20295    0.01757     6.21961
      C    4   -0.23265      1.99907     4.21723    0.01635     6.23265
      C    5    0.13853      1.99898     3.84358    0.01891     5.86147
      C    6   -0.23656      1.99908     4.22034    0.01714     6.23656
      H    7    0.21766      0.00000     0.78051    0.00184     0.78234
      H    8    0.20210      0.00000     0.79611    0.00179     0.79790
      H    9    0.20039      0.00000     0.79768    0.00192     0.79961
      N   10   -0.80047      1.99944     5.78257    0.01845     7.80047
      H   11    0.36839      0.00000     0.62911    0.00251     0.63161
      H   12    0.36824      0.00000     0.62928    0.00248     0.63176
      H   13    0.21008      0.00000     0.78803    0.00189     0.78992
      O   14   -0.54898      1.99972     6.53111    0.01815     8.54898
      C   15   -0.20628      1.99927     4.19093    0.01608     6.20628
      H   16    0.18987      0.00000     0.80902    0.00111     0.81013
      H   17    0.16688      0.00000     0.83059    0.00253     0.83312
      H   18    0.16627      0.00000     0.83120    0.00253     0.83373
 =======================================================================
   * Total *    0.00000     17.99247    47.82769    0.17983    66.00000

                      1                      2                      3
                      A                      A                      A
 Frequencies --     70.1849               147.6142               226.6186
 Red. masses --      3.1161                 3.6707                 1.7725
 Frc consts  --      0.0090                 0.0471                 0.0536
 IR Inten    --      5.3672                 0.7404                12.2403

                      4                      5                      6
                      A                      A                      A
 Frequencies --    227.5194               237.4312               363.1566
 Red. masses --      1.4129                 1.1530                 4.7240
 Frc consts  --      0.0431                 0.0383                 0.3671
 IR Inten    --     11.0337                 0.3929                 9.2101

                      7                      8                      9
                      A                      A                      A
 Frequencies --    366.1016               423.8913               430.0712
 Red. masses --      3.4069                 3.0459                 4.7200
 Frc consts  --      0.2690                 0.3225                 0.5144
 IR Inten    --      1.5765                 0.4751                 1.0343

                     10                     11                     12
                      A                      A                      A
 Frequencies --    516.9700               531.2481               623.1250
 Red. masses --      2.0809                 4.2822                 1.4326
 Frc consts  --      0.3277                 0.7121                 0.3277
 IR Inten    --     51.0009                 1.9304               310.6003

                     13                     14                     15
                      A                      A                      A
 Frequencies --    655.3939               712.5125               745.7054
 Red. masses --      6.7517                 3.8403                 3.8482
 Frc consts  --      1.7087                 1.1487                 1.2608
 IR Inten    --      0.5501                 7.2263                12.6866

                     16                     17                     18
                      A                      A                      A
 Frequencies --    803.0195               833.3182               850.9876
 Red. masses --      1.2840                 1.7953                 5.1056
 Frc consts  --      0.4878                 0.7345                 2.1784
 IR Inten    --      6.8890                71.3276                 4.9597

                     19                     20                     21
                      A                      A                      A
 Frequencies --    915.9923               950.2039              1020.2639
 Red. masses --      1.3378                 1.3239                 2.6763
 Frc consts  --      0.6613                 0.7042                 1.6414
 IR Inten    --      0.1287                 0.2521                 0.1084

                     22                     23                     24
                      A                      A                      A
 Frequencies --   1065.0085              1087.0439              1148.3680
 Red. masses --      5.7595                 1.4547                 1.2036
 Frc consts  --      3.8490                 1.0128                 0.9352
 IR Inten    --     59.9431                 6.3855                12.1106

                     25                     26                     27
                      A                      A                      A
 Frequencies --   1168.4905              1194.7785              1200.5038
 Red. masses --      1.2751                 1.1418                 1.4312
 Frc consts  --      1.0258                 0.9604                 1.2152
 IR Inten    --      0.7751                 4.7258                11.9285

                     28                     29                     30
                      A                      A                      A
 Frequencies --   1263.6235              1289.1011              1331.0487
 Red. masses --      3.1830                 4.4918                 1.8773
 Frc consts  --      2.9945                 4.3979                 1.9597
 IR Inten    --    307.9395                 8.8950                11.4082

                     31                     32                     33
                      A                      A                      A
 Frequencies --   1358.4912              1467.4117              1473.5702
 Red. masses --      2.5960                 2.6212                 1.2360
 Frc consts  --      2.8227                 3.3255                 1.5813
 IR Inten    --     19.5604                 0.9633                10.5918

                     34                     35                     36
                      A                      A                      A
 Frequencies --   1490.3487              1505.0834              1543.1516
 Red. masses --      1.0459                 1.0630                 2.5064
 Frc consts  --      1.3688                 1.4187                 3.5165
 IR Inten    --      8.7744                40.2369               257.4548

                     37                     38                     39
                      A                      A                      A
 Frequencies --   1624.4907              1654.9651              1668.1868
 Red. masses --      6.4001                 1.5506                 2.4537
 Frc consts  --      9.9511                 2.5023                 4.0231
 IR Inten    --      3.5177                36.0699                35.0713

                     40                     41                     42
                      A                      A                      A
 Frequencies --   2994.5582              3048.7739              3127.5942
 Red. masses --      1.0352                 1.1057                 1.0979
 Frc consts  --      5.4695                 6.0555                 6.3277
 IR Inten    --     62.7654                45.5127                25.3781

                     43                     44                     45
                      A                      A                      A
 Frequencies --   3156.6196              3157.5387              3190.6461
 Red. masses --      1.0890                 1.0889                 1.0930
 Frc consts  --      6.3930                 6.3963                 6.5556
 IR Inten    --     14.5182                21.0450                 5.3277

                     46                     47                     48
                      A                      A                      A
 Frequencies --   3202.6527              3558.1692              3651.5324
 Red. masses --      1.0910                 1.0478                 1.0979
 Frc consts  --      6.5932                 7.8162                 8.6254
 IR Inten    --      7.7957                12.1303                12.9535

 - Thermochemistry -
 -------------------
 Temperature   298.150 Kelvin.  Pressure   1.00000 Atm.
 Atom     1 has atomic number  6 and mass  12.00000

 Molecular mass:   123.06841 amu.
 Principal axes and moments of inertia in atomic units:
                           1         2         3
     Eigenvalues --   369.966701833.245192189.98486
           X            0.99987  -0.01569  -0.00400
           Y            0.01568   0.99988  -0.00182
           Z            0.00403   0.00176   0.99999
 This molecule is an asymmetric top.
 Rotational symmetry number  1.
 Rotational temperatures (Kelvin)      0.23411     0.04725     0.03955
 Rotational constants (GHZ):           4.87812     0.98445     0.82409
 Zero-point vibrational energy     390419.7 (Joules/Mol)
                                   93.31255 (Kcal/Mol)
 Warning -- explicit consideration of  11 degrees of freedom as
           vibrations may cause significant error
 Vibrational temperatures:    100.98   212.38   326.05   327.35   341.61
          (Kelvin)            522.50   526.74   609.88   618.78   743.80
                              764.35   896.54   942.96  1025.15  1072.90
                             1155.36  1198.96  1224.38  1317.91  1367.13
                             1467.93  1532.31  1564.01  1652.24  1681.20
                             1719.02  1727.26  1818.07  1854.73  1915.08
                             1954.56  2111.28  2120.14  2144.28  2165.48
                             2220.25  2337.28  2381.12  2400.15  4308.50
                             4386.50  4499.90  4541.67  4542.99  4590.62
                             4607.90  5119.41  5253.73

 Zero-point correction=                           0.148703 (Hartree/Particle)
 Thermal correction to Energy=                    0.157221
 Thermal correction to Enthalpy=                  0.158166
 Thermal correction to Gibbs Free Energy=         0.115661
 Sum of electronic and zero-point Energies=           -402.091960
 Sum of electronic and thermal Energies=              -402.083441
 Sum of electronic and thermal Enthalpies=            -402.082497
 Sum of electronic and thermal Free Energies=         -402.125002

                     E (Thermal)             CV                S
                      KCal/Mol        Cal/Mol-Kelvin    Cal/Mol-Kelvin
 Total                   98.658             32.630             89.459
 Electronic               0.000              0.000              0.000
 Translational            0.889              2.981             40.337
 Rotational               0.889              2.981             28.787
 Vibrational             96.880             26.669             20.335
 Vibration     1          0.598              1.968              4.148
 Vibration     2          0.617              1.905              2.703
 Vibration     3          0.650              1.800              1.906
 Vibration     4          0.651              1.799              1.898
 Vibration     5          0.656              1.783              1.822
 Vibration     6          0.737              1.548              1.109
 Vibration     7          0.739              1.542              1.096
 Vibration     8          0.786              1.418              0.879
 Vibration     9          0.791              1.405              0.858
 Vibration    10          0.872              1.212              0.617
 Vibration    11          0.886              1.181              0.584

 Optimization completed.
    -- Stationary point found.
 Normal termination of Gaussian 09 at Mon Jan  9 18:01:02 2023.
