 Gaussian 09, Revision D.01,
 Gaussian 09:  ES64L-G09RevD.01 24-Apr-2013

 ----------------------------------------------------------------------
 # opt freq b3lyp/6-311+g(d,p) geom=connectivity pop=(hirshfeld,chelpg,
 mbs,npa)
 ----------------------------------------------------------------------

 -------------------
 Title Card Required
 -------------------
 Symbolic Z-matrix:
 Charge =  0 Multiplicity = 1

 SCF Done:  E(RB3LYP) =  -608.824080157     A.U. after   16 cycles
 SCF Done:  E(RB3LYP) =  -608.844573096     A.U. after   14 cycles
 SCF Done:  E(RB3LYP) =  -608.845997735     A.U. after   13 cycles
 SCF Done:  E(RB3LYP) =  -608.846646881     A.U. after   12 cycles
 SCF Done:  E(RB3LYP) =  -608.847934181     A.U. after   15 cycles
 SCF Done:  E(RB3LYP) =  -608.848647196     A.U. after   15 cycles
 SCF Done:  E(RB3LYP) =  -608.849930066     A.U. after   13 cycles
 SCF Done:  E(RB3LYP) =  -608.850102723     A.U. after   12 cycles
 SCF Done:  E(RB3LYP) =  -608.850118024     A.U. after   11 cycles
 SCF Done:  E(RB3LYP) =  -608.850119232     A.U. after   10 cycles
 SCF Done:  E(RB3LYP) =  -608.850119374     A.U. after    9 cycles
 Optimization completed.
    -- Stationary point found.
 Normal termination of Gaussian 09 at Mon Jan  9 17:45:53 2023.

 ----------------------------------------------------------------------
 #N Geom=AllCheck Guess=TCheck SCRF=Check GenChk RB3LYP/6-311+G(d,p) Fr
 eq
 ----------------------------------------------------------------------

 Structure from the checkpoint file:  "substitutedquinolines4_Marder.chk"
 -------------------
 Title Card Required
 -------------------
 Charge =  0 Multiplicity = 1

                         Standard orientation:
 ---------------------------------------------------------------------
 Center     Atomic      Atomic             Coordinates (Angstroms)
 Number     Number       Type             X           Y           Z
 ---------------------------------------------------------------------
      1          6           0        1.946968   -1.201415    0.000043
      2          6           0        0.618271   -1.550097    0.000045
      3          6           0       -0.394670   -0.560013    0.000089
      4          6           0       -0.004798    0.819091    0.000003
      5          6           0        1.362674    1.156769    0.000015
      6          6           0        2.328201    0.167412    0.000062
      7          1           0        2.699529   -1.978332   -0.000141
      8          1           0        0.311956   -2.589006   -0.000013
      9          6           0       -1.045588    1.784066   -0.000026
     10          1           0        1.673192    2.195125   -0.000001
     11          6           0       -2.351455    1.372601    0.000039
     12          6           0       -2.623726   -0.024056    0.000302
     13          1           0       -0.798400    2.840106   -0.000122
     14          1           0       -3.171769    2.078974   -0.000041
     15          7           0       -1.691959   -0.957976    0.000164
     16          6           0       -3.996220   -0.464466   -0.000050
     17          7           0       -5.108685   -0.774004   -0.000331
     18          8           0        3.621530    0.585301   -0.000073
     19          6           0        4.669563   -0.380106   -0.000125
     20          1           0        4.633596   -1.009029   -0.895258
     21          1           0        5.594670    0.193140   -0.000687
     22          1           0        4.634169   -1.008244    0.895629
 ---------------------------------------------------------------------

 SCF Done:  E(RB3LYP) =  -608.850119374     A.U. after    1 cycles

 The electronic state is 1-A.
 Alpha  occ. eigenvalues --  -19.18004 -14.34008 -14.31969 -10.26601 -10.25988
 Alpha  occ. eigenvalues --  -10.24705 -10.23347 -10.21794 -10.21558 -10.21367
 Alpha  occ. eigenvalues --  -10.21178 -10.20638 -10.20306 -10.19623  -1.09591
 Alpha  occ. eigenvalues --   -0.98153  -0.91510  -0.87835  -0.83759  -0.79395
 Alpha  occ. eigenvalues --   -0.77951  -0.73148  -0.68962  -0.65820  -0.63370
 Alpha  occ. eigenvalues --   -0.58456  -0.56174  -0.55697  -0.51250  -0.50159
 Alpha  occ. eigenvalues --   -0.49591  -0.47105  -0.46317  -0.44799  -0.44150
 Alpha  occ. eigenvalues --   -0.43619  -0.41911  -0.40258  -0.39642  -0.37136
 Alpha  occ. eigenvalues --   -0.36606  -0.35752  -0.34645  -0.33678  -0.32274
 Alpha  occ. eigenvalues --   -0.29084  -0.27376  -0.24252
 Alpha virt. eigenvalues --   -0.09034  -0.05597  -0.01874  -0.01076  -0.00176
 Alpha virt. eigenvalues --    0.01152   0.01706   0.02333   0.02459   0.03036
 Alpha virt. eigenvalues --    0.03324   0.03794   0.04262   0.04966   0.05045

 Mulliken charges:
               1
     1  C    0.381247
     2  C   -0.305978
     3  C   -1.578658
     4  C    1.899265
     5  C   -0.432698
     6  C   -0.253369
     7  H    0.132645
     8  H    0.140471
     9  C   -0.244245
    10  H    0.125079
    11  C   -0.309869
    12  C    1.159564
    13  H    0.134757
    14  H    0.148632
    15  N    0.127959
    16  C   -0.961259
    17  N   -0.214583
    18  O   -0.176012
    19  C   -0.243460
    20  H    0.152202
    21  H    0.166058
    22  H    0.152252
 Sum of Mulliken charges =   0.00000

 Dipole moment (field-independent basis, Debye):
    X=              7.0070    Y=              1.7461    Z=              0.0002  Tot=              7.2213
 Quadrupole moment (field-independent basis, Debye-Ang):
   XX=            -95.0532   YY=            -75.3593   ZZ=            -83.3448
   XY=            -16.6718   XZ=             -0.0041   YZ=              0.0000

  Exact polarizability: 261.715  -5.472 134.895   0.002  -0.001  75.388
 Approx polarizability: 405.421  -6.471 238.272   0.001  -0.002 116.905

 ESP charges:
               1
     1  C   -0.200119
     2  C   -0.240223
     3  C    0.458932
     4  C    0.047291
     5  C   -0.401114
     6  C    0.436351
     7  H    0.143092
     8  H    0.145627
     9  C    0.011494
    10  H    0.167426
    11  C   -0.345086
    12  C    0.435947
    13  H    0.106521
    14  H    0.149559
    15  N   -0.620824
    16  C    0.321282
    17  N   -0.462675
    18  O   -0.396347
    19  C    0.179288
    20  H    0.007453
    21  H    0.048501
    22  H    0.007625
 Sum of ESP charges =   0.00000

 Summary of Natural Population Analysis:

                                       Natural Population
                Natural  -----------------------------------------------
    Atom  No    Charge         Core      Valence    Rydberg      Total
 -----------------------------------------------------------------------
      C    1   -0.26274      1.99907     4.24907    0.01460     6.26274
      C    2   -0.15228      1.99910     4.13503    0.01814     6.15228
      C    3    0.14865      1.99895     3.82949    0.02292     5.85135
      C    4   -0.06547      1.99899     4.05116    0.01533     6.06547
      C    5   -0.23230      1.99900     4.21604    0.01726     6.23230
      C    6    0.34060      1.99880     3.63781    0.02279     5.65940
      H    7    0.21767      0.00000     0.78057    0.00177     0.78233
      H    8    0.22684      0.00000     0.77137    0.00180     0.77316
      C    9   -0.14075      1.99908     4.12456    0.01711     6.14075
      H   10    0.22071      0.00000     0.77550    0.00379     0.77929
      C   11   -0.20105      1.99909     4.18673    0.01523     6.20105
      C   12    0.07734      1.99893     3.89681    0.02692     5.92266
      H   13    0.21545      0.00000     0.78295    0.00160     0.78455
      H   14    0.22740      0.00000     0.77127    0.00133     0.77260
      N   15   -0.39772      1.99932     5.37765    0.02075     7.39772
      C   16    0.28124      1.99924     3.68480    0.03472     5.71876
      N   17   -0.30393      1.99958     5.28320    0.02115     7.30393
      O   18   -0.53347      1.99971     6.51697    0.01679     8.53347
      C   19   -0.20990      1.99925     4.19518    0.01546     6.20990
      H   20    0.17331      0.00000     0.82464    0.00205     0.82669
      H   21    0.19709      0.00000     0.80188    0.00104     0.80291
      H   22    0.17332      0.00000     0.82463    0.00205     0.82668
 =======================================================================
   * Total *    0.00000     27.98812    67.71730    0.29458    96.00000

                      1                      2                      3
                      A                      A                      A
 Frequencies --     53.9032                86.4180               125.6562
 Red. masses --      4.4479                 4.6598                 8.4264
 Frc consts  --      0.0076                 0.0205                 0.0784
 IR Inten    --      0.0627                 8.5739                 2.6658

                      4                      5                      6
                      A                      A                      A
 Frequencies --    168.5350               176.1043               223.6311
 Red. masses --      4.6159                 3.7889                 4.0254
 Frc consts  --      0.0772                 0.0692                 0.1186
 IR Inten    --      0.0831                 3.0036                 4.5928

                      7                      8                      9
                      A                      A                      A
 Frequencies --    239.8042               318.0968               322.9219
 Red. masses --      1.2431                 5.2007                 5.7655
 Frc consts  --      0.0421                 0.3100                 0.3542
 IR Inten    --      0.1820                 4.4472                 0.4001

                     10                     11                     12
                      A                      A                      A
 Frequencies --    380.1767               419.3549               472.9613
 Red. masses --      5.8150                 3.6706                 3.7132
 Frc consts  --      0.4952                 0.3803                 0.4894
 IR Inten    --      0.8670                 0.4880                 7.8102

                     13                     14                     15
                      A                      A                      A
 Frequencies --    497.3331               497.4149               539.1900
 Red. masses --      5.8971                 5.5182                 7.1323
 Frc consts  --      0.8594                 0.8044                 1.2217
 IR Inten    --      2.3157                 0.2243                 0.7296

                     16                     17                     18
                      A                      A                      A
 Frequencies --    580.4092               594.7379               601.5966
 Red. masses --      6.5557                 6.1891                 2.9631
 Frc consts  --      1.3012                 1.2898                 0.6318
 IR Inten    --      6.8688                15.5939                 0.2360

                     19                     20                     21
                      A                      A                      A
 Frequencies --    679.5089               702.4196               754.4315
 Red. masses --      6.8029                 4.0769                 6.7120
 Frc consts  --      1.8507                 1.1852                 2.2508
 IR Inten    --      6.3654                 2.4615                 1.1076

                     22                     23                     24
                      A                      A                      A
 Frequencies --    783.1624               828.1549               834.5341
 Red. masses --      2.8504                 5.6334                 1.4958
 Frc consts  --      1.0301                 2.2764                 0.6138
 IR Inten    --      1.0086                11.8706                 6.8049

                     25                     26                     27
                      A                      A                      A
 Frequencies --    841.2175               884.6536               941.1224
 Red. masses --      1.9229                 1.5801                 5.9288
 Frc consts  --      0.8017                 0.7286                 3.0939
 IR Inten    --     34.7506                46.6985                 4.5631

                     28                     29                     30
                      A                      A                      A
 Frequencies --    975.2649               977.7654               994.1383
 Red. masses --      3.7328                 1.3060                 1.3248
 Frc consts  --      2.0918                 0.7356                 0.7714
 IR Inten    --      1.6943                 1.3444                 0.7123

                     31                     32                     33
                      A                      A                      A
 Frequencies --   1057.6218              1146.3799              1167.6121
 Red. masses --      3.7052                 1.5077                 1.2693
 Frc consts  --      2.4419                 1.1674                 1.0195
 IR Inten    --     56.2949                37.7950                 0.7330

                     34                     35                     36
                      A                      A                      A
 Frequencies --   1170.4068              1185.1831              1203.3142
 Red. masses --      1.2391                 1.7286                 1.5987
 Frc consts  --      1.0001                 1.4306                 1.3639
 IR Inten    --      0.4900               104.0238                 0.3664

                     37                     38                     39
                      A                      A                      A
 Frequencies --   1221.9444              1277.1333              1296.1084
 Red. masses --      2.5941                 2.4790                 3.0830
 Frc consts  --      2.2821                 2.3823                 3.0514
 IR Inten    --     19.5667                44.8051               343.6187

                     40                     41                     42
                      A                      A                      A
 Frequencies --   1338.9468              1365.1006              1397.3905
 Red. masses --      3.1200                 3.5334                 5.4587
 Frc consts  --      3.2955                 3.8795                 6.2802
 IR Inten    --      2.0173                42.0501                 8.6604

                     43                     44                     45
                      A                      A                      A
 Frequencies --   1430.9761              1476.6516              1497.1375
 Red. masses --      3.4874                 1.2868                 1.0453
 Frc consts  --      4.2074                 1.6532                 1.3805
 IR Inten    --      6.0233                15.6143                10.2760

                     46                     47                     48
                      A                      A                      A
 Frequencies --   1502.9078              1507.6532              1531.1193
 Red. masses --      1.2941                 1.8673                 3.4327
 Frc consts  --      1.7222                 2.5007                 4.7414
 IR Inten    --     63.8669                 1.0555               128.8256

                     49                     50                     51
                      A                      A                      A
 Frequencies --   1583.4860              1627.0683              1659.3072
 Red. masses --      7.3118                 6.3571                 6.3527
 Frc consts  --     10.8020                 9.9156                10.3053
 IR Inten    --     29.2438                 6.3850               179.7731

                     52                     53                     54
                      A                      A                      A
 Frequencies --   2336.8978              3012.8403              3075.8835
 Red. masses --     12.6883                 1.0342                 1.1068
 Frc consts  --     40.8255                 5.5310                 6.1695
 IR Inten    --     29.0932                64.8488                31.9158

                     55                     56                     57
                      A                      A                      A
 Frequencies --   3140.6461              3174.3272              3184.9807
 Red. masses --      1.0998                 1.0896                 1.0910
 Frc consts  --      6.3915                 6.4687                 6.5205
 IR Inten    --     19.0487                 4.1491                 5.3226

                     58                     59                     60
                      A                      A                      A
 Frequencies --   3193.3961              3203.1765              3210.6697
 Red. masses --      1.0886                 1.0955                 1.0939
 Frc consts  --      6.5409                 6.6224                 6.6439
 IR Inten    --      0.5128                 2.4751                 5.2592

 - Thermochemistry -
 -------------------
 Temperature   298.150 Kelvin.  Pressure   1.00000 Atm.
 Atom     1 has atomic number  6 and mass  12.00000

 Molecular mass:   184.06366 amu.
 Principal axes and moments of inertia in atomic units:
                           1         2         3
     Eigenvalues --   705.858835236.814005931.12979
           X            0.99988  -0.01529   0.00000
           Y            0.01529   0.99988   0.00000
           Z            0.00000   0.00000   1.00000
 This molecule is an asymmetric top.
 Rotational symmetry number  1.
 Warning -- assumption of classical behavior for rotation
           may cause significant error
 Rotational temperatures (Kelvin)      0.12271     0.01654     0.01460
 Rotational constants (GHZ):           2.55680     0.34463     0.30428
 Zero-point vibrational energy     434668.4 (Joules/Mol)
                                  103.88825 (Kcal/Mol)
 Warning -- explicit consideration of  18 degrees of freedom as
           vibrations may cause significant error
 Vibrational temperatures:     77.55   124.34   180.79   242.48   253.37
          (Kelvin)            321.75   345.02   457.67   464.61   546.99
                              603.36   680.48   715.55   715.67   775.77
                              835.08   855.69   865.56   977.66  1010.62
                             1085.46  1126.79  1191.53  1200.71  1210.32
                             1272.82  1354.06  1403.19  1406.78  1430.34
                             1521.68  1649.38  1679.93  1683.95  1705.21
                             1731.30  1758.10  1837.51  1864.81  1926.44
                             1964.07  2010.53  2058.85  2124.57  2154.04
                             2162.35  2169.17  2202.94  2278.28  2340.99
                             2387.37  3362.27  4334.80  4425.50  4518.68
                             4567.14  4582.47  4594.58  4608.65  4619.43

 Zero-point correction=                           0.165556 (Hartree/Particle)
 Thermal correction to Energy=                    0.176762
 Thermal correction to Enthalpy=                  0.177706
 Thermal correction to Gibbs Free Energy=         0.128145
 Sum of electronic and zero-point Energies=           -608.684563
 Sum of electronic and thermal Energies=              -608.673358
 Sum of electronic and thermal Enthalpies=            -608.672414
 Sum of electronic and thermal Free Energies=         -608.721974

                     E (Thermal)             CV                S
                      KCal/Mol        Cal/Mol-Kelvin    Cal/Mol-Kelvin
 Total                  110.920             43.450            104.309
 Electronic               0.000              0.000              0.000
 Translational            0.889              2.981             41.537
 Rotational               0.889              2.981             31.461
 Vibrational            109.142             37.488             31.311
 Vibration     1          0.596              1.976              4.669
 Vibration     2          0.601              1.959              3.740
 Vibration     3          0.611              1.927              3.011
 Vibration     4          0.625              1.881              2.452
 Vibration     5          0.628              1.872              2.369
 Vibration     6          0.649              1.805              1.930
 Vibration     7          0.657              1.780              1.804
 Vibration     8          0.704              1.639              1.320
 Vibration     9          0.708              1.630              1.295
 Vibration    10          0.750              1.512              1.038
 Vibration    11          0.782              1.428              0.894
 Vibration    12          0.830              1.310              0.729
 Vibration    13          0.853              1.256              0.665
 Vibration    14          0.853              1.256              0.665
 Vibration    15          0.894              1.163              0.567
 Vibration    16          0.937              1.074              0.485
 Vibration    17          0.952              1.043              0.459
 Vibration    18          0.960              1.028              0.447

 Optimization completed.
    -- Stationary point found.
 Normal termination of Gaussian 09 at Mon Jan  9 17:51:14 2023.
