 Gaussian 09, Revision D.01,
 Gaussian 09:  ES64L-G09RevD.01 24-Apr-2013

 ----------------------------------------------------------------------
 # opt freq b3lyp/6-311+g(d,p) geom=connectivity pop=(hirshfeld,mbs,npa
 )
 ----------------------------------------------------------------------

 -------------------
 Title Card Required
 -------------------
 Symbolic Z-matrix:
 Charge =  0 Multiplicity = 1

 SCF Done:  E(RB3LYP) =  -2861.21895917     A.U. after   14 cycles
 SCF Done:  E(RB3LYP) =  -2861.22110413     A.U. after   12 cycles
 SCF Done:  E(RB3LYP) =  -2861.22123178     A.U. after   11 cycles
 SCF Done:  E(RB3LYP) =  -2861.22123624     A.U. after    9 cycles
 SCF Done:  E(RB3LYP) =  -2861.22123734     A.U. after    8 cycles
 SCF Done:  E(RB3LYP) =  -2861.22123799     A.U. after   11 cycles
 SCF Done:  E(RB3LYP) =  -2861.22128204     A.U. after   11 cycles
 SCF Done:  E(RB3LYP) =  -2861.17451527     A.U. after   14 cycles
 SCF Done:  E(RB3LYP) =  -2861.22132358     A.U. after    8 cycles
 SCF Done:  E(RB3LYP) =  -2861.21555874     A.U. after   12 cycles
 SCF Done:  E(RB3LYP) =  -2861.22273216     A.U. after   10 cycles
 SCF Done:  E(RB3LYP) =  -2861.22498224     A.U. after   12 cycles
 SCF Done:  E(RB3LYP) =  -2861.22817525     A.U. after   14 cycles
 SCF Done:  E(RB3LYP) =  -2861.22951483     A.U. after   14 cycles
 SCF Done:  E(RB3LYP) =  -2861.23001498     A.U. after   12 cycles
 SCF Done:  E(RB3LYP) =  -2861.23003780     A.U. after   12 cycles
 SCF Done:  E(RB3LYP) =  -2861.23013472     A.U. after   11 cycles
 SCF Done:  E(RB3LYP) =  -2861.23013636     A.U. after   10 cycles
 SCF Done:  E(RB3LYP) =  -2861.23013676     A.U. after    8 cycles
 Optimization completed.
    -- Stationary point found.
 Normal termination of Gaussian 09 at Tue Jan 10 09:46:57 2023.

 ----------------------------------------------------------------------
 #N Geom=AllCheck Guess=TCheck SCRF=Check GenChk RB3LYP/6-311+G(d,p) Fr
 eq
 ----------------------------------------------------------------------

 Structure from the checkpoint file:  "Traceless1_Smith.chk"
 -------------------
 Title Card Required
 -------------------
 Charge =  0 Multiplicity = 1

                         Standard orientation:
 ---------------------------------------------------------------------
 Center     Atomic      Atomic             Coordinates (Angstroms)
 Number     Number       Type             X           Y           Z
 ---------------------------------------------------------------------
      1          6           0        0.368808    1.207287   -0.003865
      2          6           0       -0.322305    0.000020   -0.002725
      3          6           0        0.368814   -1.207259   -0.003947
      4          6           0        1.759774   -1.204550   -0.006057
      5          6           0        2.478537   -0.000003   -0.005313
      6          6           0        1.759781    1.204533   -0.006089
      7          1           0       -0.169954    2.146309   -0.002750
      8          1           0       -0.169980   -2.146264   -0.002668
      9          1           0        2.293341   -2.149502   -0.012828
     10          1           0        2.293405    2.149457   -0.012691
     11          7           0        3.872677   -0.000032   -0.064056
     12          1           0        4.328625    0.838514    0.263329
     13          1           0        4.328564   -0.838357    0.263969
     14         35           0       -2.242663   -0.000003    0.003429
 ---------------------------------------------------------------------

 SCF Done:  E(RB3LYP) =  -2861.23013676     A.U. after    2 cycles

 The electronic state is 1-A.
 Alpha  occ. eigenvalues -- -482.82409 -62.47693 -56.29726 -56.29340 -56.29335
 Alpha  occ. eigenvalues --  -14.33396 -10.22927 -10.22466 -10.19054 -10.19053
 Alpha  occ. eigenvalues --  -10.18423 -10.18422  -8.68659  -6.51792  -6.50502
 Alpha  occ. eigenvalues --   -6.50498  -2.62886  -2.62512  -2.62512  -2.61486
 Alpha  occ. eigenvalues --   -2.61486  -0.93688  -0.86779  -0.79612  -0.76465
 Alpha  occ. eigenvalues --   -0.71828  -0.63426  -0.60578  -0.53983  -0.53013
 Alpha  occ. eigenvalues --   -0.47622  -0.45410  -0.44742  -0.43767  -0.40458
 Alpha  occ. eigenvalues --   -0.37010  -0.36490  -0.34873  -0.28901  -0.28836
 Alpha  occ. eigenvalues --   -0.27023  -0.21700
 Alpha virt. eigenvalues --   -0.02805  -0.01695  -0.01295  -0.00241   0.01009
 Alpha virt. eigenvalues --    0.01439   0.03849   0.04392   0.05307   0.05708
 Alpha virt. eigenvalues --    0.06894   0.06899   0.07452   0.08419   0.09492

 Mulliken charges:
               1
     1  C   -0.521921
     2  C    0.611191
     3  C   -0.521984
     4  C    0.145881
     5  C   -0.299341
     6  C    0.146141
     7  H    0.142779
     8  H    0.142778
     9  H    0.109927
    10  H    0.109904
    11  N   -0.358769
    12  H    0.226357
    13  H    0.226359
    14  Br  -0.159303
 Sum of Mulliken charges =   0.00000

 Dipole moment (field-independent basis, Debye):
    X=              3.3633    Y=              0.0003    Z=              0.9373  Tot=              3.4915
 Quadrupole moment (field-independent basis, Debye-Ang):
   XX=            -50.2613   YY=            -53.4169   ZZ=            -64.8889
   XY=              0.0016   XZ=              4.5748   YZ=             -0.0011

  Exact polarizability: 146.733   0.002  93.828  -0.146  -0.001  58.097
 Approx polarizability: 214.159  -0.001 157.442  -0.944   0.000  86.965

 Summary of Natural Population Analysis:

                                       Natural Population
                Natural  -----------------------------------------------
    Atom  No    Charge         Core      Valence    Rydberg      Total
 -----------------------------------------------------------------------
      C    1   -0.20666      1.99897     4.18826    0.01943     6.20666
      C    2   -0.13684      1.99859     4.11553    0.02272     6.13684
      C    3   -0.20665      1.99897     4.18826    0.01943     6.20665
      C    4   -0.23910      1.99906     4.22338    0.01667     6.23910
      C    5    0.16551      1.99900     3.81641    0.01908     5.83449
      C    6   -0.23911      1.99906     4.22339    0.01666     6.23911
      H    7    0.22201      0.00000     0.77630    0.00169     0.77799
      H    8    0.22200      0.00000     0.77630    0.00169     0.77800
      H    9    0.20614      0.00000     0.79197    0.00189     0.79386
      H   10    0.20613      0.00000     0.79198    0.00189     0.79387
      N   11   -0.79120      1.99943     5.77410    0.01766     7.79120
      H   12    0.37460      0.00000     0.62301    0.00238     0.62540
      H   13    0.37461      0.00000     0.62301    0.00238     0.62539
     Br   14    0.04856     27.99928     6.93282    0.01934    34.95144
 =======================================================================
   * Total *    0.00000     41.99235    41.84472    0.16293    84.00000

                      1                      2                      3
                      A                      A                      A
 Frequencies --    107.0141               215.0728               284.9106
 Red. masses --      5.6674                 5.5720                 1.0384
 Frc consts  --      0.0382                 0.1519                 0.0497
 IR Inten    --      1.6796                 0.3427                17.4577

                      4                      5                      6
                      A                      A                      A
 Frequencies --    289.2188               297.9600               399.8064
 Red. masses --     12.0293                 5.0990                 2.9829
 Frc consts  --      0.5928                 0.2667                 0.2809
 IR Inten    --      1.5572                 3.0945                 0.1002

                      7                      8                      9
                      A                      A                      A
 Frequencies --    417.1177               496.7843               552.4344
 Red. masses --      2.9932                 2.0846                 1.6048
 Frc consts  --      0.3068                 0.3031                 0.2886
 IR Inten    --      0.2421               105.8554               267.4489

                     10                     11                     12
                      A                      A                      A
 Frequencies --    612.2040               647.6942               700.8280
 Red. masses --      4.7138                 6.9740                 3.2948
 Frc consts  --      1.0409                 1.7237                 0.9535
 IR Inten    --      6.0209                 0.0009                 1.5498

                     13                     14                     15
                      A                      A                      A
 Frequencies --    811.5970               824.8931               834.7878
 Red. masses --      1.2570                 2.0043                 3.6828
 Frc consts  --      0.4878                 0.8035                 1.5121
 IR Inten    --      0.0540                46.7249                20.0559

                     16                     17                     18
                      A                      A                      A
 Frequencies --    939.3919               959.3464              1016.1007
 Red. masses --      1.3013                 1.3408                 4.3769
 Frc consts  --      0.6766                 0.7271                 2.6625
 IR Inten    --      0.0987                 0.0005                16.6673

                     19                     20                     21
                      A                      A                      A
 Frequencies --   1077.7617              1084.4794              1148.3228
 Red. masses --      1.4612                 2.6792                 1.2151
 Frc consts  --      1.0000                 1.8565                 0.9440
 IR Inten    --      1.6817                21.3628                 8.3990

                     22                     23                     24
                      A                      A                      A
 Frequencies --   1201.9052              1300.5007              1317.4620
 Red. masses --      1.1240                 3.3616                 2.5657
 Frc consts  --      0.9567                 3.3498                 2.6238
 IR Inten    --     17.3699               102.0085                 4.9480

                     25                     26                     27
                      A                      A                      A
 Frequencies --   1345.2932              1453.4885              1521.1850
 Red. masses --      1.8842                 2.7726                 2.4210
 Frc consts  --      2.0091                 3.4511                 3.3008
 IR Inten    --      0.5813                 1.8000               142.7993

                     28                     29                     30
                      A                      A                      A
 Frequencies --   1614.5626              1635.4226              1664.4977
 Red. masses --      6.4357                 3.7943                 1.2654
 Frc consts  --      9.8845                 5.9792                 2.0655
 IR Inten    --      1.2425                20.9902               123.1193

                     31                     32                     33
                      A                      A                      A
 Frequencies --   3162.2660              3162.5489              3197.5065
 Red. masses --      1.0892                 1.0889                 1.0931
 Frc consts  --      6.4175                 6.4168                 6.5845
 IR Inten    --     10.0191                17.4473                 4.6629

                     34                     35                     36
                      A                      A                      A
 Frequencies --   3198.5991              3572.4449              3670.3195
 Red. masses --      1.0938                 1.0474                 1.0994
 Frc consts  --      6.5934                 7.8756                 8.7263
 IR Inten    --      0.0448                27.2320                18.7415

 - Thermochemistry -
 -------------------
 Temperature   298.150 Kelvin.  Pressure   1.00000 Atm.
 Atom     1 has atomic number  6 and mass  12.00000

 Molecular mass:   170.96836 amu.
 Principal axes and moments of inertia in atomic units:
                           1         2         3
     Eigenvalues --   321.429842863.366143183.42265
           X            1.00000   0.00000   0.00295
           Y            0.00000   1.00000   0.00000
           Z           -0.00295   0.00000   1.00000
 This molecule is an asymmetric top.
 Rotational symmetry number  1.
 Rotational temperatures (Kelvin)      0.26946     0.03025     0.02721
 Rotational constants (GHZ):           5.61473     0.63029     0.56692
 Zero-point vibrational energy     279541.7 (Joules/Mol)
                                   66.81208 (Kcal/Mol)
 Warning -- explicit consideration of  10 degrees of freedom as
           vibrations may cause significant error
 Vibrational temperatures:    153.97   309.44   409.92   416.12   428.70
          (Kelvin)            575.23   600.14   714.76   794.83   880.82
                              931.89  1008.33  1167.71  1186.84  1201.07
                             1351.57  1380.28  1461.94  1550.66  1560.32
                             1652.18  1729.27  1871.13  1895.53  1935.57
                             2091.24  2188.64  2322.99  2353.01  2394.84
                             4549.79  4550.20  4600.49  4602.06  5139.95
                             5280.76

 Zero-point correction=                           0.106472 (Hartree/Particle)
 Thermal correction to Energy=                    0.113758
 Thermal correction to Enthalpy=                  0.114702
 Thermal correction to Gibbs Free Energy=         0.073878
 Sum of electronic and zero-point Energies=          -2861.123665
 Sum of electronic and thermal Energies=             -2861.116379
 Sum of electronic and thermal Enthalpies=           -2861.115435
 Sum of electronic and thermal Free Energies=        -2861.156259

                     E (Thermal)             CV                S
                      KCal/Mol        Cal/Mol-Kelvin    Cal/Mol-Kelvin
 Total                   71.384             27.676             85.922
 Electronic               0.000              0.000              0.000
 Translational            0.889              2.981             41.317
 Rotational               0.889              2.981             29.462
 Vibrational             69.607             21.714             15.144
 Vibration     1          0.606              1.944              3.322
 Vibration     2          0.645              1.818              2.000
 Vibration     3          0.683              1.702              1.504
 Vibration     4          0.686              1.694              1.479
 Vibration     5          0.691              1.678              1.428
 Vibration     6          0.766              1.471              0.963
 Vibration     7          0.780              1.433              0.902
 Vibration     8          0.852              1.257              0.666
 Vibration     9          0.908              1.134              0.539
 Vibration    10          0.971              1.006              0.429

 Optimization completed.
    -- Stationary point found.
 Normal termination of Gaussian 09 at Tue Jan 10 09:48:01 2023.
