 Gaussian 09, Revision D.01,
 Gaussian 09:  ES64L-G09RevD.01 24-Apr-2013

 ----------------------------------------------------------------------
 # opt freq b3lyp/6-311+g(d,p) geom=connectivity pop=(hirshfeld,chelpg,
 mbs,npa)
 ----------------------------------------------------------------------

 -------------------
 Title Card Required
 -------------------
 Symbolic Z-matrix:
 Charge =  0 Multiplicity = 1

 SCF Done:  E(RB3LYP) =  -379.937133603     A.U. after   14 cycles
 SCF Done:  E(RB3LYP) =  -379.945335155     A.U. after   12 cycles
 SCF Done:  E(RB3LYP) =  -379.945677573     A.U. after   11 cycles
 SCF Done:  E(RB3LYP) =  -379.945694620     A.U. after   10 cycles
 SCF Done:  E(RB3LYP) =  -379.945696518     A.U. after    9 cycles
 SCF Done:  E(RB3LYP) =  -379.945713940     A.U. after   12 cycles
 SCF Done:  E(RB3LYP) =  -379.945707241     A.U. after   12 cycles
 SCF Done:  E(RB3LYP) =  -379.945715183     A.U. after    9 cycles
 SCF Done:  E(RB3LYP) =  -379.946389893     A.U. after   14 cycles
 SCF Done:  E(RB3LYP) =  -379.907987613     A.U. after   15 cycles
 SCF Done:  E(RB3LYP) =  -379.954597857     A.U. after   12 cycles
 SCF Done:  E(RB3LYP) =  -379.956847483     A.U. after   15 cycles
 SCF Done:  E(RB3LYP) =  -379.954528917     A.U. after   13 cycles
 SCF Done:  E(RB3LYP) =  -379.957042930     A.U. after   10 cycles
 SCF Done:  E(RB3LYP) =  -379.957382920     A.U. after   13 cycles
 SCF Done:  E(RB3LYP) =  -379.957684410     A.U. after   12 cycles
 SCF Done:  E(RB3LYP) =  -379.957713675     A.U. after   10 cycles
 SCF Done:  E(RB3LYP) =  -379.957724363     A.U. after   11 cycles
 SCF Done:  E(RB3LYP) =  -379.957725211     A.U. after    9 cycles
 Optimization completed.
    -- Stationary point found.
 Normal termination of Gaussian 09 at Mon Jan  9 17:52:36 2023.

 ----------------------------------------------------------------------
 #N Geom=AllCheck Guess=TCheck SCRF=Check GenChk RB3LYP/6-311+G(d,p) Fr
 eq
 ----------------------------------------------------------------------

 Structure from the checkpoint file:  "Traceless5_Smith.chk"
 -------------------
 Title Card Required
 -------------------
 Charge =  0 Multiplicity = 1

                         Standard orientation:
 ---------------------------------------------------------------------
 Center     Atomic      Atomic             Coordinates (Angstroms)
 Number     Number       Type             X           Y           Z
 ---------------------------------------------------------------------
      1          6           0        0.388585    1.208580    0.002052
      2          6           0        1.103059   -0.000056    0.000685
      3          6           0        0.388384   -1.208686    0.002109
      4          6           0       -0.995804   -1.209013    0.004386
      5          6           0       -1.714322    0.000235    0.004312
      6          6           0       -0.995735    1.209215    0.004409
      7          1           0        0.928175   -2.147835    0.000357
      8          1           0       -1.533205   -2.151368    0.009810
      9          1           0       -1.532633    2.151852    0.009387
     10          7           0       -3.096707   -0.000122    0.055071
     11          1           0       -3.573218    0.845018   -0.218186
     12          1           0       -3.572443   -0.845489   -0.218825
     13          1           0        0.928396    2.147701    0.000611
     14          6           0        2.529877   -0.000036   -0.003619
     15          7           0        3.686801   -0.000066   -0.007807
 ---------------------------------------------------------------------

 SCF Done:  E(RB3LYP) =  -379.957725211     A.U. after    1 cycles

 The electronic state is 1-A.
 Alpha  occ. eigenvalues --  -14.35053 -14.30633 -10.24760 -10.21583 -10.20538
 Alpha  occ. eigenvalues --  -10.20536 -10.20505 -10.19541 -10.19540  -0.95406
 Alpha  occ. eigenvalues --   -0.90834  -0.87136  -0.77750  -0.77322  -0.65471
 Alpha  occ. eigenvalues --   -0.64666  -0.57076  -0.54726  -0.54278  -0.46871
 Alpha  occ. eigenvalues --   -0.46658  -0.45004  -0.42391  -0.41561  -0.37747
 Alpha  occ. eigenvalues --   -0.37674  -0.35999  -0.33310  -0.32139  -0.28346
 Alpha  occ. eigenvalues --   -0.23432
 Alpha virt. eigenvalues --   -0.04725  -0.03791  -0.01749   0.00653   0.00729
 Alpha virt. eigenvalues --    0.02995   0.03392   0.04161   0.04351   0.05321
 Alpha virt. eigenvalues --    0.06590   0.06720   0.07186   0.07886   0.08568

 Mulliken charges:
               1
     1  C   -0.670391
     2  C    1.959676
     3  C   -0.670549
     4  C    0.255572
     5  C   -0.375048
     6  C    0.255373
     7  H    0.139409
     8  H    0.113124
     9  H    0.113125
    10  N   -0.347049
    11  H    0.233972
    12  H    0.233926
    13  H    0.139414
    14  C   -1.168863
    15  N   -0.211691
 Sum of Mulliken charges =   0.00000

 Dipole moment (field-independent basis, Debye):
    X=             -6.8590    Y=              0.0002    Z=             -0.7806  Tot=              6.9033
 Quadrupole moment (field-independent basis, Debye-Ang):
   XX=            -62.2511   YY=            -44.6787   ZZ=            -56.6096
   XY=             -0.0003   XZ=              3.2766   YZ=              0.0011

  Exact polarizability: 154.696   0.000  88.458  -0.322   0.000  52.157
 Approx polarizability: 249.375  -0.003 144.659  -1.510   0.000  77.182

 ESP charges:
               1
     1  C   -0.060344
     2  C   -0.056716
     3  C   -0.060174
     4  C   -0.267761
     5  C    0.457121
     6  C   -0.267757
     7  H    0.107603
     8  H    0.142440
     9  H    0.142491
    10  N   -0.825620
    11  H    0.347972
    12  H    0.347816
    13  H    0.107620
    14  C    0.399887
    15  N   -0.514579
 Sum of ESP charges =   0.00000

 Summary of Natural Population Analysis:

                                       Natural Population
                Natural  -----------------------------------------------
    Atom  No    Charge         Core      Valence    Rydberg      Total
 -----------------------------------------------------------------------
      C    1   -0.12968      1.99911     4.11474    0.01584     6.12968
      C    2   -0.22391      1.99886     4.20715    0.01790     6.22391
      C    3   -0.12976      1.99911     4.11481    0.01584     6.12976
      C    4   -0.25282      1.99906     4.23713    0.01662     6.25282
      C    5    0.18961      1.99903     3.79168    0.01968     5.81039
      C    6   -0.25293      1.99906     4.23724    0.01662     6.25293
      H    7    0.22045      0.00000     0.77821    0.00134     0.77955
      H    8    0.20886      0.00000     0.78936    0.00178     0.79114
      H    9    0.20889      0.00000     0.78933    0.00178     0.79111
      N   10   -0.77850      1.99942     5.76254    0.01654     7.77850
      H   11    0.38142      0.00000     0.61632    0.00225     0.61858
      H   12    0.38140      0.00000     0.61634    0.00226     0.61860
      H   13    0.22044      0.00000     0.77822    0.00134     0.77956
      C   14    0.29127      1.99925     3.67475    0.03473     5.70873
      N   15   -0.33477      1.99958     5.31393    0.02125     7.33477
 =======================================================================
   * Total *    0.00000     17.99249    43.82175    0.18577    62.00000

                      1                      2                      3
                      A                      A                      A
 Frequencies --    103.4571               156.9244               254.6447
 Red. masses --      6.2311                 7.2590                 5.3687
 Frc consts  --      0.0393                 0.1053                 0.2051
 IR Inten    --      0.6319                 3.4337                 7.5926

                      4                      5                      6
                      A                      A                      A
 Frequencies --    345.0822               383.5294               413.1113
 Red. masses --      1.0294                 3.0124                 3.0228
 Frc consts  --      0.0722                 0.2611                 0.3039
 IR Inten    --     14.3790                 0.2423                 0.0506

                      7                      8                      9
                      A                      A                      A
 Frequencies --    419.3647               445.4894               488.2179
 Red. masses --      8.5749                 1.3077                 4.0231
 Frc consts  --      0.8885                 0.1529                 0.5650
 IR Inten    --      9.4406               321.2768                33.3442

                     10                     11                     12
                      A                      A                      A
 Frequencies --    562.7019               568.7693               664.8505
 Red. masses --      3.1667                 7.4783                 7.1035
 Frc consts  --      0.5908                 1.4254                 1.8500
 IR Inten    --     21.9483                 0.1146                 0.0617

                     13                     14                     15
                      A                      A                      A
 Frequencies --    715.3163               730.3459               822.0320
 Red. masses --      5.3717                 3.7941                 1.2569
 Frc consts  --      1.6194                 1.1924                 0.5004
 IR Inten    --      5.0250                 0.0525                 0.0629

                     16                     17                     18
                      A                      A                      A
 Frequencies --    839.2687               848.7804               961.1985
 Red. masses --      1.8667                 5.0412                 1.3247
 Frc consts  --      0.7747                 2.1398                 0.7211
 IR Inten    --     55.9899                 5.1962                 0.7910

                     19                     20                     21
                      A                      A                      A
 Frequencies --    972.7908              1026.2061              1069.3721
 Red. masses --      1.3423                 2.7657                 1.4533
 Frc consts  --      0.7484                 1.7160                 0.9792
 IR Inten    --      0.0000                 0.0606                 0.9134

                     22                     23                     24
                      A                      A                      A
 Frequencies --   1153.9735              1198.6642              1231.9966
 Red. masses --      1.2111                 1.2740                 2.8174
 Frc consts  --      0.9502                 1.0785                 2.5195
 IR Inten    --      7.3459                45.6707                 0.1057

                     25                     26                     27
                      A                      A                      A
 Frequencies --   1322.0011              1323.9037              1357.6794
 Red. masses --      3.2459                 2.6096                 1.8895
 Frc consts  --      3.3423                 2.6949                 2.0520
 IR Inten    --    101.5717                 2.1201                 0.4632

                     28                     29                     30
                      A                      A                      A
 Frequencies --   1466.8300              1545.2282              1599.8606
 Red. masses --      3.0187                 2.6027                 6.0081
 Frc consts  --      3.8267                 3.6615                 9.0606
 IR Inten    --      0.6217                87.6376                 3.1720

                     31                     32                     33
                      A                      A                      A
 Frequencies --   1648.7358              1666.7029              2321.0151
 Red. masses --      2.6597                 1.5166                12.6738
 Frc consts  --      4.2597                 2.4823                40.2264
 IR Inten    --     55.3879               269.5110               105.9079

                     34                     35                     36
                      A                      A                      A
 Frequencies --   3166.4321              3166.7743              3194.6006
 Red. masses --      1.0891                 1.0889                 1.0936
 Frc consts  --      6.4335                 6.4338                 6.5758
 IR Inten    --      6.2223                15.2862                 6.3149

                     37                     38                     39
                      A                      A                      A
 Frequencies --   3195.6318              3586.8975              3690.6993
 Red. masses --      1.0946                 1.0468                 1.1012
 Frc consts  --      6.5861                 7.9350                 8.8375
 IR Inten    --      0.0507                55.3997                26.3794

 - Thermochemistry -
 -------------------
 Temperature   298.150 Kelvin.  Pressure   1.00000 Atm.
 Atom     1 has atomic number  6 and mass  12.00000

 Molecular mass:   118.05310 amu.
 Principal axes and moments of inertia in atomic units:
                           1         2         3
     Eigenvalues --   322.645461822.926142144.61072
           X            1.00000   0.00000   0.00304
           Y            0.00000   1.00000   0.00000
           Z           -0.00304   0.00000   1.00000
 This molecule is an asymmetric top.
 Rotational symmetry number  1.
 Rotational temperatures (Kelvin)      0.26845     0.04751     0.04039
 Rotational constants (GHZ):           5.59357     0.99002     0.84152
 Zero-point vibrational energy     302829.1 (Joules/Mol)
                                   72.37790 (Kcal/Mol)
 Warning -- explicit consideration of  11 degrees of freedom as
           vibrations may cause significant error
 Vibrational temperatures:    148.85   225.78   366.38   496.50   551.81
          (Kelvin)            594.37   603.37   640.96   702.44   809.60
                              818.33   956.57  1029.18  1050.80  1182.72
                             1207.52  1221.20  1382.95  1399.63  1476.48
                             1538.59  1660.31  1724.61  1772.57  1902.06
                             1904.80  1953.40  2110.44  2223.24  2301.84
                             2372.16  2398.01  3339.42  4555.78  4556.28
                             4596.31  4597.80  5160.74  5310.09

 Zero-point correction=                           0.115342 (Hartree/Particle)
 Thermal correction to Energy=                    0.122939
 Thermal correction to Enthalpy=                  0.123883
 Thermal correction to Gibbs Free Energy=         0.083441
 Sum of electronic and zero-point Energies=           -379.842384
 Sum of electronic and thermal Energies=              -379.834786
 Sum of electronic and thermal Enthalpies=            -379.833842
 Sum of electronic and thermal Free Energies=         -379.874284

                     E (Thermal)             CV                S
                      KCal/Mol        Cal/Mol-Kelvin    Cal/Mol-Kelvin
 Total                   77.145             29.424             85.117
 Electronic               0.000              0.000              0.000
 Translational            0.889              2.981             40.213
 Rotational               0.889              2.981             28.624
 Vibrational             75.368             23.462             16.280
 Vibration     1          0.605              1.946              3.388
 Vibration     2          0.621              1.895              2.587
 Vibration     3          0.665              1.755              1.698
 Vibration     4          0.723              1.585              1.189
 Vibration     5          0.753              1.505              1.025
 Vibration     6          0.777              1.442              0.916
 Vibration     7          0.782              1.428              0.894
 Vibration     8          0.805              1.371              0.810
 Vibration     9          0.844              1.276              0.688
 Vibration    10          0.918              1.112              0.518
 Vibration    11          0.925              1.099              0.507

 Optimization completed.
    -- Stationary point found.
 Normal termination of Gaussian 09 at Mon Jan  9 17:53:41 2023.
