 Gaussian 09, Revision D.01,
 Gaussian 09:  ES64L-G09RevD.01 24-Apr-2013

 ----------------------------------------------------------------------
 # opt freq b3lyp/6-311+g(d,p) geom=connectivity pop=(hirshfeld,chelpg,
 mbs,npa)
 ----------------------------------------------------------------------

 -------------------
 Title Card Required
 -------------------
 Symbolic Z-matrix:
 Charge =  0 Multiplicity = 1

 SCF Done:  E(RB3LYP) =  -822.536426737     A.U. after   15 cycles
 SCF Done:  E(RB3LYP) =  -822.540260407     A.U. after   13 cycles
 SCF Done:  E(RB3LYP) =  -822.541070102     A.U. after   13 cycles
 SCF Done:  E(RB3LYP) =  -822.543243178     A.U. after   13 cycles
 SCF Done:  E(RB3LYP) =  -822.544513278     A.U. after   14 cycles
 SCF Done:  E(RB3LYP) =  -822.547230493     A.U. after   12 cycles
 SCF Done:  E(RB3LYP) =  -822.549627729     A.U. after   13 cycles
 SCF Done:  E(RB3LYP) =  -822.549762600     A.U. after   12 cycles
 SCF Done:  E(RB3LYP) =  -822.549849818     A.U. after   11 cycles
 SCF Done:  E(RB3LYP) =  -822.550550194     A.U. after   14 cycles
 SCF Done:  E(RB3LYP) =  -822.551024487     A.U. after   13 cycles
 SCF Done:  E(RB3LYP) =  -822.553102053     A.U. after   12 cycles
 SCF Done:  E(RB3LYP) =  -822.555503614     A.U. after   14 cycles
 SCF Done:  E(RB3LYP) =  -822.555847131     A.U. after   13 cycles
 SCF Done:  E(RB3LYP) =  -822.555952302     A.U. after   12 cycles
 SCF Done:  E(RB3LYP) =  -822.556047595     A.U. after   12 cycles
 SCF Done:  E(RB3LYP) =  -822.556048968     A.U. after   10 cycles
 Optimization completed.
    -- Stationary point found.
 Normal termination of Gaussian 09 at Mon Jan  9 17:51:07 2023.

 ----------------------------------------------------------------------
 #N Geom=AllCheck Guess=TCheck SCRF=Check GenChk RB3LYP/6-311+G(d,p) Fr
 eq
 ----------------------------------------------------------------------

 Structure from the checkpoint file:  "Traceless2_Smith.chk"
 -------------------
 Title Card Required
 -------------------
 Charge =  0 Multiplicity = 1

                         Standard orientation:
 ---------------------------------------------------------------------
 Center     Atomic      Atomic             Coordinates (Angstroms)
 Number     Number       Type             X           Y           Z
 ---------------------------------------------------------------------
      1          6           0        0.592190   -0.348528    0.002121
      2          6           0        0.665353    1.045366   -0.001708
      3          6           0       -0.536480    1.753948   -0.000472
      4          6           0       -1.757425    1.094058    0.004734
      5          6           0       -1.822213   -0.307125    0.006150
      6          6           0       -0.622178   -1.025159    0.006736
      7          1           0       -0.492499    2.836451   -0.003563
      8          1           0       -2.674530    1.673456    0.012373
      9          1           0       -0.626628   -2.108517    0.016986
     10          7           0       -3.054965   -0.972669    0.073941
     11          1           0       -3.841586   -0.447743   -0.280128
     12          1           0       -3.053251   -1.918083   -0.280734
     13          8           0        1.837349    1.743839   -0.008013
     14          1           0        2.576166    1.121691   -0.004943
     15         17           0        2.098989   -1.269097   -0.001108
 ---------------------------------------------------------------------

 SCF Done:  E(RB3LYP) =  -822.556048968     A.U. after    1 cycles

 The electronic state is 1-A.
 Alpha  occ. eigenvalues -- -101.56830 -19.15899 -14.32997 -10.24407 -10.24224
 Alpha  occ. eigenvalues --  -10.22591 -10.18875 -10.18486 -10.18332  -9.48275
 Alpha  occ. eigenvalues --   -7.24709  -7.23771  -7.23742  -1.07260  -0.93365
 Alpha  occ. eigenvalues --   -0.89131  -0.83794  -0.75531  -0.73480  -0.63668
 Alpha  occ. eigenvalues --   -0.62069  -0.56634  -0.53225  -0.52044  -0.47572
 Alpha  occ. eigenvalues --   -0.45686  -0.44074  -0.43395  -0.41909  -0.39960
 Alpha  occ. eigenvalues --   -0.37948  -0.36217  -0.35976  -0.33584  -0.29929
 Alpha  occ. eigenvalues --   -0.26148  -0.20899
 Alpha virt. eigenvalues --   -0.02955  -0.00812  -0.00425   0.00191   0.01230
 Alpha virt. eigenvalues --    0.01728   0.03697   0.04862   0.05329   0.05787
 Alpha virt. eigenvalues --    0.07571   0.07904   0.08307   0.08460   0.10344

 Mulliken charges:
               1
     1  C    1.247227
     2  C   -1.319034
     3  C    0.116561
     4  C   -0.039001
     5  C   -0.339165
     6  C   -0.381710
     7  H    0.134308
     8  H    0.109909
     9  H    0.125598
    10  N   -0.362213
    11  H    0.225170
    12  H    0.225194
    13  O   -0.223260
    14  H    0.238498
    15  Cl   0.241919
 Sum of Mulliken charges =   0.00000

 Dipole moment (field-independent basis, Debye):
    X=             -2.1106    Y=             -0.9481    Z=             -1.0024  Tot=              2.5216
 Quadrupole moment (field-independent basis, Debye-Ang):
   XX=            -50.1204   YY=            -58.0293   ZZ=            -64.1004
   XY=             -0.1610   XZ=              3.9770   YZ=              1.4497

  Exact polarizability: 128.921  -0.353 104.118  -0.114  -0.105  54.570
 Approx polarizability: 195.569   0.416 170.934  -0.773  -0.450  81.102

 ESP charges:
               1
     1  C   -0.072788
     2  C    0.398788
     3  C   -0.228843
     4  C   -0.229526
     5  C    0.319761
     6  C   -0.195966
     7  H    0.161616
     8  H    0.147251
     9  H    0.160333
    10  N   -0.784423
    11  H    0.327856
    12  H    0.320988
    13  O   -0.599747
    14  H    0.400039
    15  Cl  -0.125337
 Sum of ESP charges =   0.00000

 Summary of Natural Population Analysis:

                                       Natural Population
                Natural  -----------------------------------------------
    Atom  No    Charge         Core      Valence    Rydberg      Total
 -----------------------------------------------------------------------
      C    1   -0.07734      1.99853     4.05713    0.02168     6.07734
      C    2    0.25522      1.99855     3.72081    0.02541     5.74478
      C    3   -0.21483      1.99908     4.19849    0.01725     6.21483
      C    4   -0.23373      1.99908     4.21845    0.01621     6.23373
      C    5    0.15446      1.99899     3.82752    0.01903     5.84554
      C    6   -0.26405      1.99890     4.24696    0.01819     6.26405
      H    7    0.22283      0.00000     0.77529    0.00188     0.77717
      H    8    0.20593      0.00000     0.79227    0.00180     0.79407
      H    9    0.21917      0.00000     0.77877    0.00207     0.78083
      N   10   -0.79578      1.99944     5.77833    0.01801     7.79578
      H   11    0.37204      0.00000     0.62555    0.00242     0.62796
      H   12    0.37174      0.00000     0.62585    0.00241     0.62826
      O   13   -0.67818      1.99975     6.66547    0.01296     8.67818
      H   14    0.47955      0.00000     0.51551    0.00493     0.52045
     Cl   15   -0.01704      9.99963     6.99587    0.02154    17.01704
 =======================================================================
   * Total *    0.00000     25.99196    47.82227    0.18578    74.00000

                      1                      2                      3
                      A                      A                      A
 Frequencies --    139.4309               183.6906               230.1255
 Red. masses --      5.0486                 5.3245                 4.8137
 Frc consts  --      0.0578                 0.1059                 0.1502
 IR Inten    --      0.9707                 2.7173                 2.2303

                      4                      5                      6
                      A                      A                      A
 Frequencies --    237.7045               310.4905               352.1400
 Red. masses --      1.1586                 5.3415                 1.3659
 Frc consts  --      0.0386                 0.3034                 0.0998
 IR Inten    --     17.4610                 4.8193               100.1729

                      7                      8                      9
                      A                      A                      A
 Frequencies --    357.7897               410.8727               446.4638
 Red. masses --      2.7463                 5.6742                 3.0365
 Frc consts  --      0.2071                 0.5644                 0.3566
 IR Inten    --     11.1809                 0.5130                 0.9139

                     10                     11                     12
                      A                      A                      A
 Frequencies --    483.3726               519.5099               569.4031
 Red. masses --      7.8421                 4.0199                 2.1717
 Frc consts  --      1.0796                 0.6392                 0.4148
 IR Inten    --      1.6777                13.9740               132.7570

                     13                     14                     15
                      A                      A                      A
 Frequencies --    613.4013               688.2545               700.5306
 Red. masses --      1.7532                 3.8805                 6.7773
 Frc consts  --      0.3887                 1.0830                 1.9596
 IR Inten    --    214.6837                 2.2115                12.5539

                     16                     17                     18
                      A                      A                      A
 Frequencies --    790.3522               821.2994               849.7163
 Red. masses --      4.9286                 1.4296                 1.5876
 Frc consts  --      1.8139                 0.5681                 0.6754
 IR Inten    --     33.0531                20.0360                42.5730

                     19                     20                     21
                      A                      A                      A
 Frequencies --    907.1710               943.5109              1050.7003
 Red. masses --      5.6478                 1.3142                 2.7152
 Frc consts  --      2.7385                 0.6893                 1.7661
 IR Inten    --     25.1451                 0.8402                26.6620

                     22                     23                     24
                      A                      A                      A
 Frequencies --   1100.1864              1157.8962              1204.2824
 Red. masses --      1.4828                 1.2237                 1.3634
 Frc consts  --      1.0575                 0.9666                 1.1650
 IR Inten    --      2.2439                 1.5188                87.4117

                     25                     26                     27
                      A                      A                      A
 Frequencies --   1254.9134              1308.8524              1324.5617
 Red. masses --      2.0451                 3.5589                 2.7549
 Frc consts  --      1.8976                 3.5921                 2.8478
 IR Inten    --    162.1329                 3.5614                33.7300

                     28                     29                     30
                      A                      A                      A
 Frequencies --   1363.6268              1473.2834              1530.6606
 Red. masses --      2.1807                 3.0576                 3.2410
 Frc consts  --      2.3891                 3.9103                 4.4739
 IR Inten    --     26.7115                 5.4389               309.6623

                     31                     32                     33
                      A                      A                      A
 Frequencies --   1622.6416              1655.4538              1667.8870
 Red. masses --      6.0195                 1.9601                 1.9137
 Frc consts  --      9.3380                 3.1649                 3.1366
 IR Inten    --     13.8779                14.1725                76.0327

                     34                     35                     36
                      A                      A                      A
 Frequencies --   3166.0777              3186.0965              3194.3388
 Red. masses --      1.0889                 1.0910                 1.0932
 Frc consts  --      6.4309                 6.5253                 6.5724
 IR Inten    --     11.8329                 3.7128                 2.8873

                     37                     38                     39
                      A                      A                      A
 Frequencies --   3563.8531              3658.3381              3781.0550
 Red. masses --      1.0478                 1.0985                 1.0654
 Frc consts  --      7.8410                 8.6617                 8.9739
 IR Inten    --     18.3072                16.0589                87.7343

 - Thermochemistry -
 -------------------
 Temperature   298.150 Kelvin.  Pressure   1.00000 Atm.
 Atom     1 has atomic number  6 and mass  12.00000

 Molecular mass:   143.01379 amu.
 Principal axes and moments of inertia in atomic units:
                           1         2         3
     Eigenvalues --   779.598931685.112712463.09511
           X            0.99946   0.03268   0.00409
           Y           -0.03269   0.99946   0.00299
           Z           -0.00399  -0.00312   0.99999
 This molecule is an asymmetric top.
 Rotational symmetry number  1.
 Warning -- assumption of classical behavior for rotation
           may cause significant error
 Rotational temperatures (Kelvin)      0.11110     0.05140     0.03516
 Rotational constants (GHZ):           2.31496     1.07099     0.73271
 Zero-point vibrational energy     292008.1 (Joules/Mol)
                                   69.79160 (Kcal/Mol)
 Warning -- explicit consideration of  13 degrees of freedom as
           vibrations may cause significant error
 Vibrational temperatures:    200.61   264.29   331.10   342.00   446.73
          (Kelvin)            506.65   514.78   591.15   642.36   695.46
                              747.46   819.24   882.55   990.24  1007.91
                             1137.14  1181.67  1222.55  1305.22  1357.50
                             1511.72  1582.92  1665.95  1732.69  1805.54
                             1883.14  1905.75  1961.95  2119.72  2202.28
                             2334.62  2381.83  2399.71  4555.27  4584.08
                             4595.94  5127.58  5263.53  5440.09

 Zero-point correction=                           0.111220 (Hartree/Particle)
 Thermal correction to Energy=                    0.119481
 Thermal correction to Enthalpy=                  0.120425
 Thermal correction to Gibbs Free Energy=         0.078329
 Sum of electronic and zero-point Energies=           -822.444829
 Sum of electronic and thermal Energies=              -822.436568
 Sum of electronic and thermal Enthalpies=            -822.435623
 Sum of electronic and thermal Free Energies=         -822.477720

                     E (Thermal)             CV                S
                      KCal/Mol        Cal/Mol-Kelvin    Cal/Mol-Kelvin
 Total                   74.976             31.873             88.599
 Electronic               0.000              0.000              0.000
 Translational            0.889              2.981             40.785
 Rotational               0.889              2.981             29.560
 Vibrational             73.198             25.912             18.254
 Vibration     1          0.615              1.914              2.812
 Vibration     2          0.631              1.862              2.291
 Vibration     3          0.652              1.795              1.878
 Vibration     4          0.656              1.783              1.820
 Vibration     5          0.699              1.654              1.360
 Vibration     6          0.729              1.571              1.157
 Vibration     7          0.733              1.559              1.132
 Vibration     8          0.775              1.447              0.924
 Vibration     9          0.806              1.369              0.807
 Vibration    10          0.840              1.287              0.701
 Vibration    11          0.874              1.207              0.611
 Vibration    12          0.925              1.097              0.505
 Vibration    13          0.973              1.004              0.427

 Optimization completed.
    -- Stationary point found.
 Normal termination of Gaussian 09 at Mon Jan  9 17:52:30 2023.
