 Gaussian 09, Revision D.01,
 Gaussian 09:  ES64L-G09RevD.01 24-Apr-2013

 ----------------------------------------------------------------------
 # opt freq=noraman b3lyp/6-311+g(d,p) pop=(npa,hirshfeld,chelpg,mbs) g
 eom=connectivity
 ----------------------------------------------------------------------

 -------------------
 Title Card Required
 -------------------
 Symbolic Z-matrix:
 Charge =  0 Multiplicity = 1

 SCF Done:  E(RB3LYP) =  -422.094860888     A.U. after   14 cycles
 SCF Done:  E(RB3LYP) =  -422.101820129     A.U. after   13 cycles
 SCF Done:  E(RB3LYP) =  -422.103964908     A.U. after   12 cycles
 SCF Done:  E(RB3LYP) =  -422.105991733     A.U. after   14 cycles
 SCF Done:  E(RB3LYP) =  -422.108144803     A.U. after   12 cycles
 SCF Done:  E(RB3LYP) =  -422.110958024     A.U. after   12 cycles
 SCF Done:  E(RB3LYP) =  -422.112229052     A.U. after   12 cycles
 SCF Done:  E(RB3LYP) =  -422.112868409     A.U. after   13 cycles
 SCF Done:  E(RB3LYP) =  -422.113608465     A.U. after   12 cycles
 SCF Done:  E(RB3LYP) =  -422.114092590     A.U. after   12 cycles
 SCF Done:  E(RB3LYP) =  -422.115359732     A.U. after   14 cycles
 SCF Done:  E(RB3LYP) =  -422.115121680     A.U. after   14 cycles
 SCF Done:  E(RB3LYP) =  -422.115702588     A.U. after   11 cycles
 SCF Done:  E(RB3LYP) =  -422.116257462     A.U. after   12 cycles
 SCF Done:  E(RB3LYP) =  -422.116759185     A.U. after   11 cycles
 SCF Done:  E(RB3LYP) =  -422.116865207     A.U. after   11 cycles
 SCF Done:  E(RB3LYP) =  -422.116892614     A.U. after   10 cycles
 SCF Done:  E(RB3LYP) =  -422.116908629     A.U. after   10 cycles
 SCF Done:  E(RB3LYP) =  -422.116910748     A.U. after    9 cycles
 Optimization completed.
    -- Stationary point found.
 Normal termination of Gaussian 09 at Tue Apr 23 11:48:26 2024.

 ----------------------------------------------------------------------
 #N Geom=AllCheck Guess=TCheck SCRF=Check GenChk RB3LYP/6-311+G(d,p) Fr
 eq
 ----------------------------------------------------------------------

 Structure from the checkpoint file:  "21.chk"
 -------------------
 Title Card Required
 -------------------
 Charge =  0 Multiplicity = 1

                         Standard orientation:
 ---------------------------------------------------------------------
 Center     Atomic      Atomic             Coordinates (Angstroms)
 Number     Number       Type             X           Y           Z
 ---------------------------------------------------------------------
      1          6           0        0.477598    0.986912    0.000041
      2          6           0       -0.439376   -0.080393    0.000352
      3          6           0        0.016644   -1.393605    0.000359
      4          6           0        1.392521   -1.648363    0.000014
      5          6           0        2.298120   -0.593734   -0.000206
      6          6           0        1.840443    0.725621   -0.000209
      7          1           0        3.363847   -0.789678   -0.000425
      8          1           0        2.528340    1.562714   -0.000427
      9          8           0        0.029718    2.274625   -0.000049
     10          1           0       -0.936656    2.250572    0.000414
     11          1           0       -0.682946   -2.219263    0.000684
     12          8           0       -1.755030    0.317712    0.000488
     13          6           0       -2.767857   -0.680776   -0.000573
     14          1           0       -3.716584   -0.146802   -0.001185
     15          1           0       -2.702116   -1.308270   -0.895294
     16          1           0       -2.703516   -1.308601    0.894053
     17          1           0        1.743571   -2.673338    0.000007
 ---------------------------------------------------------------------

 SCF Done:  E(RB3LYP) =  -422.116910748     A.U. after    1 cycles

 The electronic state is 1-A.
 Alpha  occ. eigenvalues --  -19.17146 -19.15176 -10.23903 -10.23870 -10.23496
 Alpha  occ. eigenvalues --  -10.18084 -10.17352 -10.17288 -10.17221  -1.09011
 Alpha  occ. eigenvalues --   -1.05763  -0.85668  -0.76580  -0.75116  -0.70888
 Alpha  occ. eigenvalues --   -0.61575  -0.61516  -0.56229  -0.53051  -0.49673
 Alpha  occ. eigenvalues --   -0.48668  -0.46518  -0.45428  -0.43432  -0.41836
 Alpha  occ. eigenvalues --   -0.39847  -0.38829  -0.35678  -0.35523  -0.34895
 Alpha  occ. eigenvalues --   -0.33194  -0.24893  -0.21930
 Alpha virt. eigenvalues --   -0.01033  -0.00303   0.00102   0.00435   0.01593
 Alpha virt. eigenvalues --    0.03173   0.04093   0.04298   0.05167   0.06444
 Alpha virt. eigenvalues --    0.06902   0.07443   0.08794   0.08873   0.11061

 Mulliken charges:
               1
     1  C   -0.661898
     2  C    0.002652
     3  C    0.210288
     4  C   -0.291416
     5  C   -0.173193
     6  C    0.455654
     7  H    0.124386
     8  H    0.127802
     9  O   -0.288258
    10  H    0.278978
    11  H    0.119952
    12  O   -0.276201
    13  C   -0.209265
    14  H    0.159114
    15  H    0.149426
    16  H    0.149421
    17  H    0.122559
 Sum of Mulliken charges =   0.00000

 Dipole moment (field-independent basis, Debye):
    X=             -2.1475    Y=             -1.8975    Z=             -0.0006  Tot=              2.8657
 Quadrupole moment (field-independent basis, Debye-Ang):
   XX=            -43.7652   YY=            -53.4704   ZZ=            -57.0339
   XY=              0.5203   XZ=              0.0014   YZ=              0.0010

  Exact polarizability: 113.684  -1.598  99.357  -0.005  -0.002  55.265
 Approx polarizability: 166.779  -5.758 163.475  -0.015  -0.003  81.359

 ESP charges:
               1
     1  C    0.272326
     2  C    0.195974
     3  C   -0.202110
     4  C   -0.144619
     5  C   -0.119530
     6  C   -0.186377
     7  H    0.099182
     8  H    0.142604
     9  O   -0.560810
    10  H    0.384735
    11  H    0.129952
    12  O   -0.339599
    13  C    0.105271
    14  H    0.055041
    15  H    0.030173
    16  H    0.030226
    17  H    0.107561
 Sum of ESP charges =   0.00000

 Summary of Natural Population Analysis:

                                       Natural Population
                Natural  -----------------------------------------------
    Atom  No    Charge         Core      Valence    Rydberg      Total
 -----------------------------------------------------------------------
      C    1    0.28230      1.99872     3.69388    0.02510     5.71770
      C    2    0.25661      1.99871     3.72288    0.02180     5.74339
      C    3   -0.27752      1.99908     4.26242    0.01602     6.27752
      C    4   -0.21917      1.99918     4.20130    0.01869     6.21917
      C    5   -0.21176      1.99918     4.19450    0.01808     6.21176
      C    6   -0.24589      1.99908     4.22876    0.01804     6.24589
      H    7    0.20700      0.00000     0.79155    0.00145     0.79300
      H    8    0.21941      0.00000     0.77883    0.00176     0.78059
      O    9   -0.67699      1.99975     6.66365    0.01358     8.67699
      H   10    0.48651      0.00000     0.50899    0.00450     0.51349
      H   11    0.21127      0.00000     0.78689    0.00184     0.78873
      O   12   -0.57191      1.99971     6.55349    0.01871     8.57191
      C   13   -0.20365      1.99927     4.18812    0.01626     6.20365
      H   14    0.19193      0.00000     0.80701    0.00106     0.80807
      H   15    0.17290      0.00000     0.82473    0.00237     0.82710
      H   16    0.17288      0.00000     0.82475    0.00236     0.82712
      H   17    0.20606      0.00000     0.79243    0.00151     0.79394
 =======================================================================
   * Total *    0.00000     17.99268    47.82420    0.18312    66.00000

                      1                      2                      3
                      A                      A                      A
 Frequencies --     73.4845               177.8122               223.5094
 Red. masses --      3.2106                 2.7374                 3.5091
 Frc consts  --      0.0102                 0.0510                 0.1033
 IR Inten    --      4.2903                 0.2837                 1.1506

                      4                      5                      6
                      A                      A                      A
 Frequencies --    235.3618               305.4248               342.0489
 Red. masses --      1.3792                 3.6803                 4.3501
 Frc consts  --      0.0450                 0.2023                 0.2999
 IR Inten    --      0.4407                 0.1550                 4.9048

                      7                      8                      9
                      A                      A                      A
 Frequencies --    440.2571               463.1495               509.4858
 Red. masses --      1.2646                 2.2074                 6.1088
 Frc consts  --      0.1444                 0.2790                 0.9343
 IR Inten    --     95.0966                14.2944                 1.1856

                     10                     11                     12
                      A                      A                      A
 Frequencies --    536.2198               572.3538               595.3299
 Red. masses --      4.6982                 3.9251                 6.3378
 Frc consts  --      0.7959                 0.7576                 1.3234
 IR Inten    --     11.0345                 1.0766                 3.4725

                     13                     14                     15
                      A                      A                      A
 Frequencies --    725.7087               750.2925               769.4803
 Red. masses --      4.3276                 1.2387                 5.0051
 Frc consts  --      1.3428                 0.4109                 1.7461
 IR Inten    --      0.0020                86.3734                27.7571

                     16                     17                     18
                      A                      A                      A
 Frequencies --    845.6944               847.8358               924.5801
 Red. masses --      5.7673                 1.4411                 1.3697
 Frc consts  --      2.4303                 0.6104                 0.6899
 IR Inten    --      6.9689                 0.1746                 4.4415

                     19                     20                     21
                      A                      A                      A
 Frequencies --    970.4409              1046.4634              1062.4296
 Red. masses --      1.2566                 3.5580                 2.7289
 Frc consts  --      0.6972                 2.2956                 1.8148
 IR Inten    --      0.1034                36.9024                37.7186

                     22                     23                     24
                      A                      A                      A
 Frequencies --   1130.1744              1170.0940              1180.5961
 Red. masses --      1.7388                 1.2697                 1.1097
 Frc consts  --      1.3086                 1.0243                 0.9113
 IR Inten    --     38.5806                 0.5546                 2.3461

                     25                     26                     27
                      A                      A                      A
 Frequencies --   1194.1042              1227.3767              1248.3529
 Red. masses --      1.5330                 1.3756                 3.4827
 Frc consts  --      1.2879                 1.2209                 3.1977
 IR Inten    --     17.1095                52.2553               180.1565

                     28                     29                     30
                      A                      A                      A
 Frequencies --   1286.4158              1330.7948              1396.5218
 Red. masses --      3.6373                 1.8931                 2.2476
 Frc consts  --      3.5464                 1.9753                 2.5826
 IR Inten    --    213.1051                 5.7504                42.9826

                     31                     32                     33
                      A                      A                      A
 Frequencies --   1476.9459              1491.6467              1497.3058
 Red. masses --      1.1887                 1.0452                 2.0320
 Frc consts  --      1.5277                 1.3703                 2.6841
 IR Inten    --     14.8827                 9.8878                 2.7308

                     34                     35                     36
                      A                      A                      A
 Frequencies --   1507.2725              1532.7985              1635.2812
 Red. masses --      1.1538                 2.8412                 6.5777
 Frc consts  --      1.5445                 3.9330                10.3635
 IR Inten    --     42.3123               178.6984                35.6132

                     37                     38                     39
                      A                      A                      A
 Frequencies --   1650.0396              3011.1962              3071.9307
 Red. masses --      5.8835                 1.0337                 1.1066
 Frc consts  --      9.4378                 5.5224                 6.1525
 IR Inten    --     12.4827                51.0223                33.6373

                     40                     41                     42
                      A                      A                      A
 Frequencies --   3136.5229              3171.9064              3184.6966
 Red. masses --      1.1002                 1.0856                 1.0901
 Frc consts  --      6.3770                 6.4353                 6.5142
 IR Inten    --     18.9832                 0.5390                13.2537

                     43                     44                     45
                      A                      A                      A
 Frequencies --   3194.6697              3201.6902              3778.9918
 Red. masses --      1.0935                 1.0953                 1.0652
 Frc consts  --      6.5755                 6.6154                 8.9624
 IR Inten    --     13.2596                 4.5517               103.4555

 - Thermochemistry -
 -------------------
 Temperature   298.150 Kelvin.  Pressure   1.00000 Atm.
 Atom     1 has atomic number  6 and mass  12.00000

 Molecular mass:   124.05243 amu.
 Principal axes and moments of inertia in atomic units:
                           1         2         3
     Eigenvalues --   690.390461164.577591843.44475
           X            0.99960   0.02820   0.00001
           Y           -0.02820   0.99960   0.00000
           Z           -0.00001   0.00000   1.00000
 This molecule is an asymmetric top.
 Rotational symmetry number  1.
 Warning -- assumption of classical behavior for rotation
           may cause significant error
 Rotational temperatures (Kelvin)      0.12546     0.07437     0.04698
 Rotational constants (GHZ):           2.61409     1.54970     0.97900
 Zero-point vibrational energy     359625.5 (Joules/Mol)
                                   85.95256 (Kcal/Mol)
 Warning -- explicit consideration of  12 degrees of freedom as
           vibrations may cause significant error
 Vibrational temperatures:    105.73   255.83   321.58   338.63   439.44
          (Kelvin)            492.13   633.43   666.37   733.04   771.50
                              823.49   856.55  1044.13  1079.50  1107.11
                             1216.76  1219.85  1330.26  1396.25  1505.63
                             1528.60  1626.07  1683.50  1698.61  1718.05
                             1765.92  1796.10  1850.86  1914.71  2009.28
                             2124.99  2146.14  2154.29  2168.63  2205.35
                             2352.80  2374.04  4332.43  4419.82  4512.75
                             4563.66  4582.06  4596.41  4606.51  5437.12

 Zero-point correction=                           0.136974 (Hartree/Particle)
 Thermal correction to Energy=                    0.145015
 Thermal correction to Enthalpy=                  0.145960
 Thermal correction to Gibbs Free Energy=         0.104361
 Sum of electronic and zero-point Energies=           -421.979937
 Sum of electronic and thermal Energies=              -421.971895
 Sum of electronic and thermal Enthalpies=            -421.970951
 Sum of electronic and thermal Free Energies=         -422.012550

                     E (Thermal)             CV                S
                      KCal/Mol        Cal/Mol-Kelvin    Cal/Mol-Kelvin
 Total                   90.999             30.914             87.553
 Electronic               0.000              0.000              0.000
 Translational            0.889              2.981             40.361
 Rotational               0.889              2.981             28.785
 Vibrational             89.221             24.953             18.407
 Vibration     1          0.599              1.967              4.058
 Vibration     2          0.628              1.870              2.351
 Vibration     3          0.649              1.805              1.930
 Vibration     4          0.655              1.787              1.838
 Vibration     5          0.696              1.663              1.387
 Vibration     6          0.721              1.591              1.203
 Vibration     7          0.800              1.382              0.826
 Vibration     8          0.821              1.332              0.757
 Vibration     9          0.865              1.229              0.635
 Vibration    10          0.891              1.170              0.573
 Vibration    11          0.929              1.091              0.500
 Vibration    12          0.953              1.042              0.458

 Optimization completed.
    -- Stationary point found.
 Normal termination of Gaussian 09 at Tue Apr 23 11:49:40 2024.
