 Gaussian 09, Revision D.01,
 Gaussian 09:  ES64L-G09RevD.01 24-Apr-2013

 ----------------------------------------------------------------------
 # opt freq=noraman b3lyp/6-311+g(d,p) pop=(npa,hirshfeld,chelpg,mbs) g
 eom=connectivity
 ----------------------------------------------------------------------

 -------------------
 Title Card Required
 -------------------
 Symbolic Z-matrix:
 Charge =  0 Multiplicity = 1

 SCF Done:  E(RB3LYP) =  -422.098211014     A.U. after   14 cycles
 SCF Done:  E(RB3LYP) =  -422.104144090     A.U. after   12 cycles
 SCF Done:  E(RB3LYP) =  -422.104693794     A.U. after   12 cycles
 SCF Done:  E(RB3LYP) =  -422.104968860     A.U. after   12 cycles
 SCF Done:  E(RB3LYP) =  -422.105399867     A.U. after   12 cycles
 SCF Done:  E(RB3LYP) =  -422.106355613     A.U. after   12 cycles
 SCF Done:  E(RB3LYP) =  -422.104964080     A.U. after   14 cycles
 SCF Done:  E(RB3LYP) =  -422.107127948     A.U. after   10 cycles
 SCF Done:  E(RB3LYP) =  -422.109846928     A.U. after   15 cycles
 SCF Done:  E(RB3LYP) =  -422.111451707     A.U. after   12 cycles
 SCF Done:  E(RB3LYP) =  -422.113724550     A.U. after   14 cycles
 SCF Done:  E(RB3LYP) =  -422.114654575     A.U. after   12 cycles
 SCF Done:  E(RB3LYP) =  -422.115208601     A.U. after   12 cycles
 SCF Done:  E(RB3LYP) =  -422.115297254     A.U. after   11 cycles
 SCF Done:  E(RB3LYP) =  -422.115318302     A.U. after   10 cycles
 SCF Done:  E(RB3LYP) =  -422.115320315     A.U. after    9 cycles
 SCF Done:  E(RB3LYP) =  -422.115320569     A.U. after    8 cycles
 Optimization completed.
    -- Stationary point found.
 Normal termination of Gaussian 09 at Tue Apr 23 11:40:46 2024.

 ----------------------------------------------------------------------
 #N Geom=AllCheck Guess=TCheck SCRF=Check GenChk RB3LYP/6-311+G(d,p) Fr
 eq
 ----------------------------------------------------------------------

 Structure from the checkpoint file:  "19.chk"
 -------------------
 Title Card Required
 -------------------
 Charge =  0 Multiplicity = 1

                         Standard orientation:
 ---------------------------------------------------------------------
 Center     Atomic      Atomic             Coordinates (Angstroms)
 Number     Number       Type             X           Y           Z
 ---------------------------------------------------------------------
      1          6           0       -1.647838   -0.347089   -0.000021
      2          6           0       -0.407787   -0.974594   -0.000091
      3          6           0        0.762350   -0.205608   -0.000079
      4          6           0        0.688089    1.188878   -0.000027
      5          6           0       -0.572103    1.794949   -0.000017
      6          6           0       -1.741003    1.048639    0.000011
      7          1           0       -0.320086   -2.056028   -0.000033
      8          1           0       -0.633910    2.877497   -0.000015
      9          1           0       -2.717042    1.516477    0.000028
     10          8           0       -2.821234   -1.052725    0.000087
     11          1           0       -2.633067   -1.997011    0.000067
     12          1           0        1.578890    1.800911    0.000080
     13          8           0        1.925901   -0.919489   -0.000061
     14          6           0        3.157260   -0.209353    0.000105
     15          1           0        3.937657   -0.968598    0.000136
     16          1           0        3.258322    0.414763   -0.894140
     17          1           0        3.258091    0.414771    0.894385
 ---------------------------------------------------------------------

 SCF Done:  E(RB3LYP) =  -422.115320569     A.U. after    1 cycles

 The electronic state is 1-A.
 Alpha  occ. eigenvalues --  -19.15979 -19.15864 -10.24198 -10.24128 -10.23011
 Alpha  occ. eigenvalues --  -10.18180 -10.17325 -10.17125 -10.16709  -1.07519
 Alpha  occ. eigenvalues --   -1.06939  -0.85653  -0.76692  -0.74704  -0.70539
 Alpha  occ. eigenvalues --   -0.63567  -0.59906  -0.55930  -0.52298  -0.49401
 Alpha  occ. eigenvalues --   -0.48352  -0.47743  -0.44095  -0.43572  -0.41705
 Alpha  occ. eigenvalues --   -0.39621  -0.38416  -0.36887  -0.36608  -0.33970
 Alpha  occ. eigenvalues --   -0.31672  -0.24262  -0.22579
 Alpha virt. eigenvalues --   -0.01453  -0.00303   0.00349   0.00505   0.01945
 Alpha virt. eigenvalues --    0.02838   0.04230   0.04293   0.04400   0.06431
 Alpha virt. eigenvalues --    0.07471   0.07600   0.08636   0.08760   0.10876

 Mulliken charges:
               1
     1  C   -0.320486
     2  C   -0.020005
     3  C   -0.402627
     4  C    0.417049
     5  C   -0.506034
     6  C    0.344499
     7  H    0.104201
     8  H    0.128092
     9  H    0.124848
    10  O   -0.266286
    11  H    0.249949
    12  H    0.117483
    13  O   -0.189603
    14  C   -0.231754
    15  H    0.158227
    16  H    0.146225
    17  H    0.146221
 Sum of Mulliken charges =   0.00000

 Dipole moment (field-independent basis, Debye):
    X=              1.9227    Y=             -0.1258    Z=              0.0002  Tot=              1.9268
 Quadrupole moment (field-independent basis, Debye-Ang):
   XX=            -49.9191   YY=            -46.6775   ZZ=            -57.0910
   XY=              4.0198   XZ=              0.0007   YZ=              0.0000

  Exact polarizability: 118.997   0.355  96.226  -0.001   0.001  55.323
 Approx polarizability: 173.205   0.771 156.504  -0.002   0.002  81.458

 ESP charges:
               1
     1  C    0.552327
     2  C   -0.556738
     3  C    0.535776
     4  C   -0.346550
     5  C   -0.034668
     6  C   -0.326233
     7  H    0.175889
     8  H    0.099537
     9  H    0.164043
    10  O   -0.651034
    11  H    0.433358
    12  H    0.144790
    13  O   -0.427402
    14  C    0.215969
    15  H    0.036261
    16  H   -0.007657
    17  H   -0.007667
 Sum of ESP charges =   0.00000

 Summary of Natural Population Analysis:

                                       Natural Population
                Natural  -----------------------------------------------
    Atom  No    Charge         Core      Valence    Rydberg      Total
 -----------------------------------------------------------------------
      C    1    0.33116      1.99880     3.64597    0.02408     5.66884
      C    2   -0.32757      1.99897     4.31104    0.01756     6.32757
      C    3    0.34195      1.99881     3.63580    0.02345     5.65805
      C    4   -0.32608      1.99906     4.31079    0.01623     6.32608
      C    5   -0.16438      1.99920     4.14739    0.01780     6.16438
      C    6   -0.28410      1.99905     4.26607    0.01898     6.28410
      H    7    0.21473      0.00000     0.78272    0.00255     0.78527
      H    8    0.20605      0.00000     0.79239    0.00156     0.79395
      H    9    0.22022      0.00000     0.77814    0.00165     0.77978
      O   10   -0.67554      1.99975     6.66331    0.01248     8.67554
      H   11    0.46915      0.00000     0.52649    0.00436     0.53085
      H   12    0.21260      0.00000     0.78564    0.00176     0.78740
      O   13   -0.54403      1.99971     6.52639    0.01793     8.54403
      C   14   -0.20706      1.99926     4.19210    0.01570     6.20706
      H   15    0.19147      0.00000     0.80744    0.00109     0.80853
      H   16    0.17072      0.00000     0.82695    0.00234     0.82928
      H   17    0.17072      0.00000     0.82694    0.00234     0.82928
 =======================================================================
   * Total *    0.00000     17.99260    47.82556    0.18184    66.00000

                      1                      2                      3
                      A                      A                      A
 Frequencies --     83.5843               199.4809               229.7465
 Red. masses --      3.3196                 1.5204                 4.2517
 Frc consts  --      0.0137                 0.0356                 0.1322
 IR Inten    --      3.6086                 0.6640                 1.8202

                      4                      5                      6
                      A                      A                      A
 Frequencies --    233.6564               262.9996               314.5578
 Red. masses --      3.4883                 1.8904                 1.1608
 Frc consts  --      0.1122                 0.0770                 0.0677
 IR Inten    --      3.0681                 1.3988               108.6726

                      7                      8                      9
                      A                      A                      A
 Frequencies --    365.2122               460.4918               475.0605
 Red. masses --      4.0872                 2.8681                 4.7262
 Frc consts  --      0.3212                 0.3583                 0.6284
 IR Inten    --      2.2190                10.7875                13.9785

                     10                     11                     12
                      A                      A                      A
 Frequencies --    530.7776               587.3717               624.2387
 Red. masses --      7.3767                 4.5523                 4.4956
 Frc consts  --      1.2244                 0.9254                 1.0321
 IR Inten    --      6.8103                 8.8748                 0.0349

                     13                     14                     15
                      A                      A                      A
 Frequencies --    678.2247               745.5856               765.5207
 Red. masses --      2.3020                 6.7633                 1.3471
 Frc consts  --      0.6239                 2.2152                 0.4651
 IR Inten    --     16.9274                 6.0756                39.2817

                     16                     17                     18
                      A                      A                      A
 Frequencies --    836.5397               857.7203               939.2191
 Red. masses --      1.6162                 1.4580                 4.0660
 Frc consts  --      0.6664                 0.6320                 2.1132
 IR Inten    --     42.2745                 1.0558                12.0894

                     19                     20                     21
                      A                      A                      A
 Frequencies --    970.1856              1006.7291              1071.3279
 Red. masses --      1.2730                 5.9471                 2.9840
 Frc consts  --      0.7060                 3.5513                 2.0178
 IR Inten    --      0.0000                 2.7138                33.3825

                     22                     23                     24
                      A                      A                      A
 Frequencies --   1100.2589              1169.0932              1173.3601
 Red. masses --      1.5723                 1.2723                 1.4092
 Frc consts  --      1.1214                 1.0246                 1.1431
 IR Inten    --     10.3805                 0.7270               214.4177

                     25                     26                     27
                      A                      A                      A
 Frequencies --   1187.1894              1194.0379              1222.3204
 Red. masses --      1.3151                 1.4050                 1.8412
 Frc consts  --      1.0921                 1.1802                 1.6208
 IR Inten    --     30.5406                51.7324               213.7630

                     28                     29                     30
                      A                      A                      A
 Frequencies --   1310.7804              1339.5863              1359.2006
 Red. masses --      3.4327                 1.4748                 5.5953
 Frc consts  --      3.4749                 1.5592                 6.0903
 IR Inten    --     71.8629                11.9352                21.5612

                     31                     32                     33
                      A                      A                      A
 Frequencies --   1473.6183              1489.7122              1491.6606
 Red. masses --      1.2138                 2.5317                 1.0458
 Frc consts  --      1.5529                 3.3102                 1.3710
 IR Inten    --      7.3150                25.4875                 9.3985

                     34                     35                     36
                      A                      A                      A
 Frequencies --   1506.1595              1532.0631              1636.6914
 Red. masses --      1.1203                 2.4329                 6.2085
 Frc consts  --      1.4974                 3.3646                 9.7988
 IR Inten    --     40.8226                90.8679                63.6669

                     37                     38                     39
                      A                      A                      A
 Frequencies --   1647.6902              3006.6424              3065.9855
 Red. masses --      6.2396                 1.0343                 1.1063
 Frc consts  --      9.9807                 5.5090                 6.1271
 IR Inten    --    242.8854                52.7588                37.6023

                     40                     41                     42
                      A                      A                      A
 Frequencies --   3133.7624              3170.4575              3172.7422
 Red. masses --      1.0993                 1.0906                 1.0884
 Frc consts  --      6.3608                 6.4586                 6.4555
 IR Inten    --     21.5575                 9.6000                 5.3595

                     43                     44                     45
                      A                      A                      A
 Frequencies --   3202.2520              3212.1107              3835.0109
 Red. masses --      1.0929                 1.0925                 1.0661
 Frc consts  --      6.6028                 6.6415                 9.2385
 IR Inten    --      5.5806                 4.4422                61.2352

 - Thermochemistry -
 -------------------
 Temperature   298.150 Kelvin.  Pressure   1.00000 Atm.
 Atom     1 has atomic number  6 and mass  12.00000

 Molecular mass:   124.05243 amu.
 Principal axes and moments of inertia in atomic units:
                           1         2         3
     Eigenvalues --   496.442671605.645502090.57558
           X            0.99998   0.00575   0.00000
           Y           -0.00575   0.99998   0.00000
           Z            0.00000   0.00000   1.00000
 This molecule is an asymmetric top.
 Rotational symmetry number  1.
 Warning -- assumption of classical behavior for rotation
           may cause significant error
 Rotational temperatures (Kelvin)      0.17447     0.05394     0.04143
 Rotational constants (GHZ):           3.63535     1.12400     0.86327
 Zero-point vibrational energy     358105.8 (Joules/Mol)
                                   85.58934 (Kcal/Mol)
 Warning -- explicit consideration of  11 degrees of freedom as
           vibrations may cause significant error
 Vibrational temperatures:    120.26   287.01   330.55   336.18   378.40
          (Kelvin)            452.58   525.46   662.54   683.51   763.67
                              845.10   898.14   975.81  1072.73  1101.41
                             1203.59  1234.07  1351.33  1395.88  1448.46
                             1541.40  1583.03  1682.06  1688.20  1708.10
                             1717.95  1758.64  1885.92  1927.36  1955.58
                             2120.21  2143.36  2146.16  2167.02  2204.29
                             2354.83  2370.66  4325.88  4411.26  4508.78
                             4561.58  4564.86  4607.32  4621.51  5517.72

 Zero-point correction=                           0.136395 (Hartree/Particle)
 Thermal correction to Energy=                    0.144573
 Thermal correction to Enthalpy=                  0.145517
 Thermal correction to Gibbs Free Energy=         0.103729
 Sum of electronic and zero-point Energies=           -421.978925
 Sum of electronic and thermal Energies=              -421.970747
 Sum of electronic and thermal Enthalpies=            -421.969803
 Sum of electronic and thermal Free Energies=         -422.011591

                     E (Thermal)             CV                S
                      KCal/Mol        Cal/Mol-Kelvin    Cal/Mol-Kelvin
 Total                   90.721             31.360             87.950
 Electronic               0.000              0.000              0.000
 Translational            0.889              2.981             40.361
 Rotational               0.889              2.981             28.901
 Vibrational             88.944             25.398             18.689
 Vibration     1          0.600              1.960              3.805
 Vibration     2          0.638              1.841              2.138
 Vibration     3          0.652              1.796              1.881
 Vibration     4          0.654              1.789              1.851
 Vibration     5          0.670              1.741              1.642
 Vibration     6          0.702              1.646              1.338
 Vibration     7          0.738              1.544              1.100
 Vibration     8          0.818              1.338              0.765
 Vibration     9          0.832              1.305              0.724
 Vibration    10          0.886              1.182              0.585
 Vibration    11          0.945              1.059              0.472

 Optimization completed.
    -- Stationary point found.
 Normal termination of Gaussian 09 at Tue Apr 23 11:41:59 2024.
