 Gaussian 09, Revision D.01,
 Gaussian 09:  ES64L-G09RevD.01 24-Apr-2013

 ----------------------------------------------------------------------
 # opt freq b3lyp/6-311+g(d,p) geom=connectivity pop=(hirshfeld,chelpg,
 mbs,npa)
 ----------------------------------------------------------------------

 -------------------
 Title Card Required
 -------------------
 Symbolic Z-matrix:
 Charge =  0 Multiplicity = 1

 SCF Done:  E(RB3LYP) =  -624.823723275     A.U. after   14 cycles
 SCF Done:  E(RB3LYP) =  -624.827923071     A.U. after   12 cycles
 SCF Done:  E(RB3LYP) =  -624.828667279     A.U. after   11 cycles
 SCF Done:  E(RB3LYP) =  -624.828701013     A.U. after   11 cycles
 SCF Done:  E(RB3LYP) =  -624.828702716     A.U. after    9 cycles
 SCF Done:  E(RB3LYP) =  -624.828704946     A.U. after   10 cycles
 SCF Done:  E(RB3LYP) =  -624.789259275     A.U. after   14 cycles
 SCF Done:  E(RB3LYP) =  -624.828705270     A.U. after    7 cycles
 SCF Done:  E(RB3LYP) =  -624.811193413     A.U. after   13 cycles
 SCF Done:  E(RB3LYP) =  -624.828705497     A.U. after    6 cycles
 SCF Done:  E(RB3LYP) =  -624.839828954     A.U. after   11 cycles
 SCF Done:  E(RB3LYP) =  -624.839843693     A.U. after   10 cycles
 SCF Done:  E(RB3LYP) =  -624.839847769     A.U. after   10 cycles
 SCF Done:  E(RB3LYP) =  -624.839848165     A.U. after    9 cycles
 SCF Done:  E(RB3LYP) =  -624.839848275     A.U. after    9 cycles
 SCF Done:  E(RB3LYP) =  -624.839848394     A.U. after   10 cycles
 SCF Done:  E(RB3LYP) =  -624.839848597     A.U. after   10 cycles
 SCF Done:  E(RB3LYP) =  -624.839848828     A.U. after   10 cycles
 SCF Done:  E(RB3LYP) =  -624.839848860     A.U. after    9 cycles
 Optimization completed.
    -- Stationary point found.
 Normal termination of Gaussian 09 at Mon Jan  9 17:54:57 2023.

 ----------------------------------------------------------------------
 #N Geom=AllCheck Guess=TCheck SCRF=Check GenChk RB3LYP/6-311+G(d,p) Fr
 eq
 ----------------------------------------------------------------------

 Structure from the checkpoint file:  "Traceless3_Smith.chk"
 -------------------
 Title Card Required
 -------------------
 Charge =  0 Multiplicity = 1

                         Standard orientation:
 ---------------------------------------------------------------------
 Center     Atomic      Atomic             Coordinates (Angstroms)
 Number     Number       Type             X           Y           Z
 ---------------------------------------------------------------------
      1          6           0        0.322982    1.204831   -0.029352
      2          6           0       -0.383241   -0.000025   -0.040912
      3          6           0        0.322999   -1.204857   -0.029362
      4          6           0        1.709611   -1.207517   -0.012683
      5          6           0        2.427811   -0.000006   -0.001287
      6          6           0        1.709578    1.207502   -0.012681
      7          1           0       -0.213601   -2.145585   -0.041060
      8          1           0        2.246055   -2.150478   -0.014813
      9          1           0        2.246035    2.150456   -0.014791
     10          7           0        3.814475    0.000026   -0.036798
     11          1           0        4.279960    0.843196    0.261600
     12          1           0        4.280017   -0.843110    0.261609
     13          1           0       -0.213649    2.145541   -0.041058
     14          6           0       -1.879113   -0.000014    0.000041
     15          9           0       -2.412570    1.089267   -0.603649
     16          9           0       -2.412587   -1.089657   -0.602922
     17          9           0       -2.364833    0.000424    1.273629
 ---------------------------------------------------------------------

 SCF Done:  E(RB3LYP) =  -624.839848860     A.U. after    1 cycles

 The electronic state is 1-A.
 Alpha  occ. eigenvalues --  -24.70785 -24.70784 -24.70158 -14.34349 -10.42463
 Alpha  occ. eigenvalues --  -10.24009 -10.19876 -10.19815 -10.19791 -10.18933
 Alpha  occ. eigenvalues --  -10.18932  -1.31097  -1.22594  -1.21905  -0.94684
 Alpha  occ. eigenvalues --   -0.87157  -0.78114  -0.77112  -0.70131  -0.64346
 Alpha  occ. eigenvalues --   -0.63359  -0.59007  -0.58925  -0.57542  -0.54035
 Alpha  occ. eigenvalues --   -0.53702  -0.47440  -0.47084  -0.46545  -0.45655
 Alpha  occ. eigenvalues --   -0.44692  -0.43727  -0.43152  -0.42292  -0.40923
 Alpha  occ. eigenvalues --   -0.40633  -0.37988  -0.36734  -0.33835  -0.27680
 Alpha  occ. eigenvalues --   -0.23348
 Alpha virt. eigenvalues --   -0.03241  -0.02964  -0.01287   0.01139   0.01214
 Alpha virt. eigenvalues --    0.03808   0.04093   0.04848   0.05623   0.06887
 Alpha virt. eigenvalues --    0.07159   0.07275   0.08279   0.09844   0.10390

 Mulliken charges:
               1
     1  C   -0.397284
     2  C   -0.095990
     3  C   -0.398174
     4  C    0.232631
     5  C   -0.318320
     6  C    0.232670
     7  H    0.141353
     8  H    0.110446
     9  H    0.110447
    10  N   -0.352867
    11  H    0.232427
    12  H    0.232430
    13  H    0.141353
    14  C    0.471251
    15  F   -0.128588
    16  F   -0.128627
    17  F   -0.085157
 Sum of Mulliken charges =   0.00000

 Dipole moment (field-independent basis, Debye):
    X=              4.9826    Y=             -0.0001    Z=              0.7699  Tot=              5.0417
 Quadrupole moment (field-independent basis, Debye-Ang):
   XX=            -55.3890   YY=            -56.1602   ZZ=            -67.7744
   XY=              0.0005   XZ=              4.3827   YZ=              0.0001

  Exact polarizability: 126.299   0.000  92.976   0.241   0.000  57.638
 Approx polarizability: 186.894   0.000 153.198   0.214   0.000  85.722

 ESP charges:
               1
     1  C   -0.038923
     2  C   -0.127030
     3  C   -0.038920
     4  C   -0.272840
     5  C    0.449645
     6  C   -0.272824
     7  H    0.104507
     8  H    0.141083
     9  H    0.141072
    10  N   -0.836286
    11  H    0.349414
    12  H    0.349411
    13  H    0.104521
    14  C    0.695572
    15  F   -0.241405
    16  F   -0.241372
    17  F   -0.265623
 Sum of ESP charges =   0.00000

 Summary of Natural Population Analysis:

                                       Natural Population
                Natural  -----------------------------------------------
    Atom  No    Charge         Core      Valence    Rydberg      Total
 -----------------------------------------------------------------------
      C    1   -0.15273      1.99910     4.13642    0.01721     6.15273
      C    2   -0.19434      1.99888     4.17760    0.01787     6.19434
      C    3   -0.15273      1.99910     4.13642    0.01721     6.15273
      C    4   -0.25081      1.99907     4.23505    0.01668     6.25081
      C    5    0.18479      1.99902     3.79662    0.01957     5.81521
      C    6   -0.25080      1.99907     4.23504    0.01668     6.25080
      H    7    0.22324      0.00000     0.77506    0.00170     0.77676
      H    8    0.20690      0.00000     0.79129    0.00181     0.79310
      H    9    0.20690      0.00000     0.79130    0.00181     0.79310
      N   10   -0.78341      1.99942     5.76721    0.01678     7.78341
      H   11    0.37899      0.00000     0.61870    0.00231     0.62101
      H   12    0.37899      0.00000     0.61870    0.00231     0.62101
      H   13    0.22324      0.00000     0.77506    0.00170     0.77676
      C   14    1.06863      1.99908     2.87193    0.06036     4.93137
      F   15   -0.36129      1.99992     7.35488    0.00649     9.36129
      F   16   -0.36128      1.99992     7.35487    0.00649     9.36128
      F   17   -0.36430      1.99992     7.35795    0.00643     9.36430
 =======================================================================
   * Total *    0.00000     21.99248    59.79410    0.21342    82.00000

                      1                      2                      3
                      A                      A                      A
 Frequencies --     16.4401                92.5515               173.3140
 Red. masses --      5.8722                 6.5436                 7.3446
 Frc consts  --      0.0009                 0.0330                 0.1300
 IR Inten    --      0.3462                 0.6633                 0.1116

                      4                      5                      6
                      A                      A                      A
 Frequencies --    223.9976               311.0753               328.5627
 Red. masses --      6.2946                 9.5623                 1.0410
 Frc consts  --      0.1861                 0.5452                 0.0662
 IR Inten    --      1.3826                 3.7982                14.5888

                      7                      8                      9
                      A                      A                      A
 Frequencies --    358.5012               401.8422               415.6988
 Red. masses --      4.8632                 5.3877                 3.0787
 Frc consts  --      0.3683                 0.5126                 0.3135
 IR Inten    --      0.6747                32.7896                 0.0562

                     10                     11                     12
                      A                      A                      A
 Frequencies --    425.8503               478.8936               513.0373
 Red. masses --      4.1879                 1.4642                 3.5581
 Frc consts  --      0.4475                 0.1978                 0.5518
 IR Inten    --      1.7829               301.3588                36.3123

                     13                     14                     15
                      A                      A                      A
 Frequencies --    568.7989               586.3131               608.2743
 Red. masses --     12.0189                 3.8045                 6.4848
 Frc consts  --      2.2910                 0.7706                 1.4137
 IR Inten    --      0.2525                13.6391                13.2418

                     16                     17                     18
                      A                      A                      A
 Frequencies --    652.7742               742.5481               745.3249
 Red. masses --      7.0152                 4.5146                 8.5598
 Frc consts  --      1.7612                 1.4666                 2.8016
 IR Inten    --      1.3149                 0.7178                 0.0704

                     19                     20                     21
                      A                      A                      A
 Frequencies --    822.5300               839.0634               846.1310
 Red. masses --      1.2585                 2.0141                 4.1002
 Frc consts  --      0.5017                 0.8354                 1.7295
 IR Inten    --      0.0154                58.0173                16.5293

                     22                     23                     24
                      A                      A                      A
 Frequencies --    959.5511               974.0098              1022.2455
 Red. masses --      1.3403                 1.3461                 3.6495
 Frc consts  --      0.7271                 0.7524                 2.2470
 IR Inten    --      5.3309                 0.1111                22.0927

                     25                     26                     27
                      A                      A                      A
 Frequencies --   1069.4576              1070.9894              1091.1658
 Red. masses --      1.6058                 4.3247                 8.5889
 Frc consts  --      1.0821                 2.9227                 6.0252
 IR Inten    --     30.8998               176.6948               241.3722

                     28                     29                     30
                      A                      A                      A
 Frequencies --   1125.2765              1163.8462              1204.8300
 Red. masses --      3.2811                 1.4608                 1.1298
 Frc consts  --      2.4479                 1.1658                 0.9662
 IR Inten    --    180.0686                18.5697                71.2692

                     31                     32                     33
                      A                      A                      A
 Frequencies --   1314.5891              1323.3450              1341.1526
 Red. masses --      5.2271                 3.3066                 1.8158
 Frc consts  --      5.3222                 3.4117                 1.9243
 IR Inten    --    315.5339               226.5556                12.0618

                     34                     35                     36
                      A                      A                      A
 Frequencies --   1361.1837              1468.9022              1554.4276
 Red. masses --      2.8279                 3.0147                 2.7191
 Frc consts  --      3.0871                 3.8325                 3.8709
 IR Inten    --      4.6666                 6.6699                27.0736

                     37                     38                     39
                      A                      A                      A
 Frequencies --   1618.4393              1652.0635              1667.7476
 Red. masses --      6.3715                 2.1912                 1.7217
 Frc consts  --      9.8330                 3.5237                 2.8215
 IR Inten    --     10.3675                23.0611               238.9808

                     40                     41                     42
                      A                      A                      A
 Frequencies --   3165.7121              3166.0902              3196.4001
 Red. masses --      1.0892                 1.0890                 1.0927
 Frc consts  --      6.4313                 6.4318                 6.5776
 IR Inten    --      8.2109                14.1972                 5.2354

                     43                     44                     45
                      A                      A                      A
 Frequencies --   3197.2294              3582.5070              3684.3915
 Red. masses --      1.0937                 1.0470                 1.1006
 Frc consts  --      6.5874                 7.9169                 8.8028
 IR Inten    --      0.0357                38.9106                23.3914

 - Thermochemistry -
 -------------------
 Temperature   298.150 Kelvin.  Pressure   1.00000 Atm.
 Atom     1 has atomic number  6 and mass  12.00000

 Molecular mass:   161.04523 amu.
 Principal axes and moments of inertia in atomic units:
                           1         2         3
     Eigenvalues --   642.114442886.490003208.32162
           X            0.99999   0.00000   0.00322
           Y            0.00000   1.00000   0.00000
           Z           -0.00322   0.00000   0.99999
 This molecule is an asymmetric top.
 Rotational symmetry number  1.
 Warning -- assumption of classical behavior for rotation
           may cause significant error
 Rotational temperatures (Kelvin)      0.13489     0.03001     0.02700
 Rotational constants (GHZ):           2.81062     0.62524     0.56252
 Zero-point vibrational energy     317770.5 (Joules/Mol)
                                   75.94897 (Kcal/Mol)
 Warning -- explicit consideration of  15 degrees of freedom as
           vibrations may cause significant error
 Vibrational temperatures:     23.65   133.16   249.36   322.28   447.57
          (Kelvin)            472.73   515.80   578.16   598.10   612.70
                              689.02   738.15   818.37   843.57   875.17
                              939.20  1068.36  1072.35  1183.44  1207.22
                             1217.39  1380.58  1401.38  1470.78  1538.71
                             1540.91  1569.94  1619.02  1674.51  1733.48
                             1891.40  1904.00  1929.62  1958.44  2113.42
                             2236.47  2328.57  2376.95  2399.51  4554.75
                             4555.29  4598.90  4600.09  5154.42  5301.01

 Zero-point correction=                           0.121032 (Hartree/Particle)
 Thermal correction to Energy=                    0.130482
 Thermal correction to Enthalpy=                  0.131426
 Thermal correction to Gibbs Free Energy=         0.085001
 Sum of electronic and zero-point Energies=           -624.718816
 Sum of electronic and thermal Energies=              -624.709367
 Sum of electronic and thermal Enthalpies=            -624.708423
 Sum of electronic and thermal Free Energies=         -624.754848

                     E (Thermal)             CV                S
                      KCal/Mol        Cal/Mol-Kelvin    Cal/Mol-Kelvin
 Total                   81.879             36.199             97.711
 Electronic               0.000              0.000              0.000
 Translational            0.889              2.981             41.138
 Rotational               0.889              2.981             30.165
 Vibrational             80.101             30.238             26.407
 Vibration     1          0.593              1.986              7.023
 Vibration     2          0.602              1.955              3.605
 Vibration     3          0.627              1.875              2.399
 Vibration     4          0.649              1.805              1.927
 Vibration     5          0.700              1.653              1.357
 Vibration     6          0.712              1.618              1.267
 Vibration     7          0.733              1.558              1.129
 Vibration     8          0.767              1.466              0.956
 Vibration     9          0.779              1.436              0.907
 Vibration    10          0.788              1.414              0.872
 Vibration    11          0.835              1.297              0.713
 Vibration    12          0.868              1.221              0.626
 Vibration    13          0.925              1.099              0.507
 Vibration    14          0.943              1.061              0.474
 Vibration    15          0.967              1.014              0.436

 Optimization completed.
    -- Stationary point found.
 Normal termination of Gaussian 09 at Mon Jan  9 17:57:00 2023.
