 Gaussian 09, Revision D.01,
 Gaussian 09:  ES64L-G09RevD.01 24-Apr-2013

 ----------------------------------------------------------------------
 # opt freq=noraman b3lyp/6-311+g(d,p) pop=(npa,hirshfeld,chelpg,mbs) g
 eom=connectivity
 ----------------------------------------------------------------------

 -------------------
 Title Card Required
 -------------------
 Symbolic Z-matrix:
 Charge =  0 Multiplicity = 1

 SCF Done:  E(RB3LYP) =  -464.839501940     A.U. after   14 cycles
 SCF Done:  E(RB3LYP) =  -464.847091937     A.U. after   12 cycles
 SCF Done:  E(RB3LYP) =  -464.847824633     A.U. after   11 cycles
 SCF Done:  E(RB3LYP) =  -464.847927175     A.U. after   11 cycles
 SCF Done:  E(RB3LYP) =  -464.848003350     A.U. after   12 cycles
 SCF Done:  E(RB3LYP) =  -464.848455179     A.U. after   14 cycles
 SCF Done:  E(RB3LYP) =  -464.848386077     A.U. after   14 cycles
 SCF Done:  E(RB3LYP) =  -464.848626358     A.U. after   13 cycles
 SCF Done:  E(RB3LYP) =  -464.848685336     A.U. after   11 cycles
 SCF Done:  E(RB3LYP) =  -464.848689241     A.U. after   10 cycles
 SCF Done:  E(RB3LYP) =  -464.852568019     A.U. after   14 cycles
 SCF Done:  E(RB3LYP) =  -464.853544102     A.U. after   12 cycles
 SCF Done:  E(RB3LYP) =  -464.853436438     A.U. after   12 cycles
 SCF Done:  E(RB3LYP) =  -464.853839614     A.U. after    9 cycles
 SCF Done:  E(RB3LYP) =  -464.853364261     A.U. after   12 cycles
 SCF Done:  E(RB3LYP) =  -464.853966418     A.U. after   10 cycles
 SCF Done:  E(RB3LYP) =  -464.853997261     A.U. after   11 cycles
 SCF Done:  E(RB3LYP) =  -464.854019055     A.U. after   10 cycles
 SCF Done:  E(RB3LYP) =  -464.854019709     A.U. after    9 cycles
 Optimization completed.
    -- Stationary point found.
 Normal termination of Gaussian 09 at Tue Apr 23 11:42:15 2024.

 ----------------------------------------------------------------------
 #N Geom=AllCheck Guess=TCheck SCRF=Check GenChk RB3LYP/6-311+G(d,p) Fr
 eq
 ----------------------------------------------------------------------

 Structure from the checkpoint file:  "17.chk"
 -------------------
 Title Card Required
 -------------------
 Charge =  0 Multiplicity = 1

                         Standard orientation:
 ---------------------------------------------------------------------
 Center     Atomic      Atomic             Coordinates (Angstroms)
 Number     Number       Type             X           Y           Z
 ---------------------------------------------------------------------
      1          6           0       -2.481766   -0.012995   -0.000033
      2          6           0       -1.761322   -1.207897    0.000031
      3          6           0       -0.373355   -1.176086    0.000154
      4          6           0        0.349382    0.028850    0.000034
      5          6           0       -0.398234    1.209069    0.000017
      6          6           0       -1.794871    1.196816    0.000000
      7          1           0       -2.299841   -2.148172    0.000050
      8          1           0        0.155713   -2.122413    0.000198
      9          1           0        0.097944    2.170696    0.000036
     10          1           0       -2.342396    2.135357    0.000069
     11          6           0        1.888272    0.007893   -0.000046
     12          8           0       -3.850489   -0.096096   -0.000058
     13          1           0       -4.228178    0.789441   -0.000171
     14          6           0        2.491203    1.424849   -0.000107
     15          1           0        2.195867    1.993484    0.886112
     16          1           0        3.582504    1.357682    0.000377
     17          1           0        2.196709    1.993110   -0.886830
     18          6           0        2.396305   -0.728651    1.261427
     19          1           0        2.038284   -1.760059    1.301017
     20          1           0        3.490572   -0.755298    1.273249
     21          1           0        2.058299   -0.223174    2.170277
     22          6           0        2.396293   -0.728908   -1.261400
     23          1           0        2.038640   -1.760463   -1.300470
     24          1           0        2.057798   -0.223931   -2.170350
     25          1           0        3.490564   -0.755124   -1.273566
 ---------------------------------------------------------------------

 SCF Done:  E(RB3LYP) =  -464.854019709     A.U. after    1 cycles

 The electronic state is 1-A.
 Alpha  occ. eigenvalues --  -19.15734 -10.23632 -10.19263 -10.17722 -10.17674
 Alpha  occ. eigenvalues --  -10.17621 -10.17558 -10.17179 -10.16029 -10.15914
 Alpha  occ. eigenvalues --  -10.15913  -1.06750  -0.86354  -0.81652  -0.75382
 Alpha  occ. eigenvalues --   -0.73398  -0.68998  -0.68752  -0.63090  -0.61253
 Alpha  occ. eigenvalues --   -0.55523  -0.55228  -0.49107  -0.47330  -0.45469
 Alpha  occ. eigenvalues --   -0.44320  -0.43481  -0.42675  -0.41504  -0.40948
 Alpha  occ. eigenvalues --   -0.39533  -0.39384  -0.37858  -0.36919  -0.35324
 Alpha  occ. eigenvalues --   -0.34560  -0.33015  -0.32631  -0.32249  -0.25897
 Alpha  occ. eigenvalues --   -0.22576
 Alpha virt. eigenvalues --   -0.01739  -0.00514  -0.00168   0.00169   0.01891
 Alpha virt. eigenvalues --    0.02526   0.03020   0.03834   0.04081   0.05329
 Alpha virt. eigenvalues --    0.05608   0.06349   0.06472   0.06764   0.07839

 Mulliken charges:
               1
     1  C   -0.370209
     2  C    0.180235
     3  C   -0.379060
     4  C    0.892230
     5  C   -0.921420
     6  C    0.021946
     7  H    0.125538
     8  H    0.114280
     9  H    0.123335
    10  H    0.101533
    11  C    0.461253
    12  O   -0.265026
    13  H    0.246748
    14  C   -0.518825
    15  H    0.140290
    16  H    0.146892
    17  H    0.140336
    18  C   -0.531419
    19  H    0.134890
    20  H    0.135620
    21  H    0.140885
    22  C   -0.531464
    23  H    0.134884
    24  H    0.140897
    25  H    0.135628
 Sum of Mulliken charges =   0.00000

 Dipole moment (field-independent basis, Debye):
    X=              0.4741    Y=              1.3403    Z=             -0.0002  Tot=              1.4217
 Quadrupole moment (field-independent basis, Debye-Ang):
   XX=            -66.2196   YY=            -63.5509   ZZ=            -72.2349
   XY=             -6.6081   XZ=              0.0003   YZ=             -0.0002

  Exact polarizability: 157.136  -1.907 121.042   0.001  -0.001  87.886
 Approx polarizability: 218.793  -2.253 199.163   0.003  -0.003 129.088

 ESP charges:
               1
     1  C    0.418343
     2  C   -0.205466
     3  C   -0.143149
     4  C   -0.026329
     5  C   -0.088200
     6  C   -0.302898
     7  H    0.139155
     8  H    0.117810
     9  H    0.101975
    10  H    0.120986
    11  C    0.397674
    12  O   -0.625163
    13  H    0.417485
    14  C   -0.276126
    15  H    0.052838
    16  H    0.061792
    17  H    0.052704
    18  C   -0.201315
    19  H    0.030274
    20  H    0.047981
    21  H    0.016496
    22  C   -0.202763
    23  H    0.030510
    24  H    0.017085
    25  H    0.048301
 Sum of ESP charges =   0.00000

 Summary of Natural Population Analysis:

                                       Natural Population
                Natural  -----------------------------------------------
    Atom  No    Charge         Core      Valence    Rydberg      Total
 -----------------------------------------------------------------------
      C    1    0.30832      1.99875     3.66913    0.02379     5.69168
      C    2   -0.24568      1.99906     4.22828    0.01834     6.24568
      C    3   -0.18082      1.99907     4.16617    0.01558     6.18082
      C    4   -0.04643      1.99896     4.02648    0.02098     6.04643
      C    5   -0.18964      1.99906     4.17478    0.01580     6.18964
      C    6   -0.27874      1.99905     4.26156    0.01812     6.27874
      H    7    0.21825      0.00000     0.78004    0.00171     0.78175
      H    8    0.20332      0.00000     0.79507    0.00161     0.79668
      H    9    0.20875      0.00000     0.78959    0.00167     0.79125
      H   10    0.20048      0.00000     0.79753    0.00199     0.79952
      C   11   -0.10054      1.99914     4.08384    0.01755     6.10054
      O   12   -0.67871      1.99975     6.66653    0.01243     8.67871
      H   13    0.46805      0.00000     0.52755    0.00440     0.53195
      C   14   -0.57521      1.99931     4.56398    0.01192     6.57521
      H   15    0.20250      0.00000     0.79611    0.00138     0.79750
      H   16    0.20415      0.00000     0.79449    0.00137     0.79585
      H   17    0.20251      0.00000     0.79611    0.00138     0.79749
      C   18   -0.56171      1.99930     4.55108    0.01133     6.56171
      H   19    0.19950      0.00000     0.79921    0.00129     0.80050
      H   20    0.19746      0.00000     0.80108    0.00146     0.80254
      H   21    0.20447      0.00000     0.79436    0.00117     0.79553
      C   22   -0.56172      1.99930     4.55108    0.01133     6.56172
      H   23    0.19950      0.00000     0.79921    0.00129     0.80050
      H   24    0.20447      0.00000     0.79436    0.00117     0.79553
      H   25    0.19747      0.00000     0.80107    0.00146     0.80253
 =======================================================================
   * Total *    0.00000     21.99076    59.80870    0.20055    82.00000

                      1                      2                      3
                      A                      A                      A
 Frequencies --     42.8174                93.0894               200.5605
 Red. masses --      3.0985                 4.0955                 3.1289
 Frc consts  --      0.0033                 0.0209                 0.0742
 IR Inten    --      0.5847                 0.2549                 0.7499

                      4                      5                      6
                      A                      A                      A
 Frequencies --    213.2461               248.9384               265.9021
 Red. masses --      1.3791                 1.8516                 1.0881
 Frc consts  --      0.0369                 0.0676                 0.0453
 IR Inten    --      0.0382                 1.0267                 0.0006

                      7                      8                      9
                      A                      A                      A
 Frequencies --    298.2182               299.6094               325.6162
 Red. masses --      3.1416                 1.1283                 1.0410
 Frc consts  --      0.1646                 0.0597                 0.0650
 IR Inten    --      0.1891               107.1049                 0.0109

                     10                     11                     12
                      A                      A                      A
 Frequencies --    331.0206               361.8927               403.0201
 Red. masses --      2.7018                 2.5204                 3.2976
 Frc consts  --      0.1744                 0.1945                 0.3156
 IR Inten    --      0.8630                 0.5576                 8.2025

                     13                     14                     15
                      A                      A                      A
 Frequencies --    417.9011               441.8061               472.2750
 Red. masses --      2.9578                 3.4718                 3.0253
 Frc consts  --      0.3043                 0.3993                 0.3976
 IR Inten    --      1.3296                 0.0016                 2.1759

                     16                     17                     18
                      A                      A                      A
 Frequencies --    506.2299               551.2463               656.5951
 Red. masses --      3.0386                 2.2187                 7.0689
 Frc consts  --      0.4588                 0.3972                 1.7956
 IR Inten    --      2.6597                26.2284                 0.3382

                     19                     20                     21
                      A                      A                      A
 Frequencies --    662.0526               732.1542               812.4102
 Red. masses --      4.4644                 3.9063                 1.3183
 Frc consts  --      1.1529                 1.2337                 0.5126
 IR Inten    --      6.3250                 1.1737                11.7589

                     22                     23                     24
                      A                      A                      A
 Frequencies --    821.9637               844.3727               857.2975
 Red. masses --      3.3756                 1.6296                 3.8698
 Frc consts  --      1.3437                 0.6845                 1.6757
 IR Inten    --     16.8465                37.7774                 4.2230

                     25                     26                     27
                      A                      A                      A
 Frequencies --    923.0116               935.4132               941.5408
 Red. masses --      1.7868                 1.7190                 1.3284
 Frc consts  --      0.8969                 0.8862                 0.6938
 IR Inten    --      0.5924                 0.6097                 0.1554

                     28                     29                     30
                      A                      A                      A
 Frequencies --    957.4688               973.2689              1026.9177
 Red. masses --      1.2011                 1.3364                 2.5683
 Frc consts  --      0.6487                 0.7458                 1.5958
 IR Inten    --      0.0716                 0.0157                 2.5408

                     31                     32                     33
                      A                      A                      A
 Frequencies --   1037.8845              1046.7900              1127.0421
 Red. masses --      1.4842                 1.3936                 2.2949
 Frc consts  --      0.9420                 0.8997                 1.7175
 IR Inten    --      0.5487                 0.0140                 1.3234

                     34                     35                     36
                      A                      A                      A
 Frequencies --   1132.3683              1186.1488              1203.2209
 Red. masses --      1.5144                 1.4041                 1.1346
 Frc consts  --      1.1441                 1.1639                 0.9678
 IR Inten    --     20.5466               183.6764                 9.0529

                     37                     38                     39
                      A                      A                      A
 Frequencies --   1222.0493              1224.6136              1280.1748
 Red. masses --      2.7547                 2.3840                 3.6537
 Frc consts  --      2.4238                 2.1065                 3.5279
 IR Inten    --      4.2676                 9.5100               113.1662

                     40                     41                     42
                      A                      A                      A
 Frequencies --   1283.4241              1328.3594              1361.8798
 Red. masses --      2.7874                 2.8392                 1.6951
 Frc consts  --      2.7051                 2.9518                 1.8524
 IR Inten    --      1.9557                 7.5547                26.8524

                     43                     44                     45
                      A                      A                      A
 Frequencies --   1397.0300              1397.1044              1429.2397
 Red. masses --      1.2082                 1.2332                 1.2179
 Frc consts  --      1.3893                 1.4182                 1.4657
 IR Inten    --      8.8150                14.9915                 4.5769

                     46                     47                     48
                      A                      A                      A
 Frequencies --   1456.3167              1481.5565              1486.6492
 Red. masses --      2.7006                 1.0489                 1.0451
 Frc consts  --      3.3746                 1.3565                 1.3610
 IR Inten    --     14.2097                 0.0046                 0.0959

                     49                     50                     51
                      A                      A                      A
 Frequencies --   1491.3049              1503.8035              1508.1747
 Red. masses --      1.0614                 1.0650                 1.0505
 Frc consts  --      1.3908                 1.4190                 1.4079
 IR Inten    --      0.5140                 9.4108                 7.7738

                     52                     53                     54
                      A                      A                      A
 Frequencies --   1521.2380              1544.4516              1628.7129
 Red. masses --      1.0640                 2.4318                 5.8664
 Frc consts  --      1.4508                 3.4176                 9.1687
 IR Inten    --      5.9802               117.1732                15.7984

                     55                     56                     57
                      A                      A                      A
 Frequencies --   1653.0577              3018.2289              3019.3314
 Red. masses --      5.9644                 1.0352                 1.0347
 Frc consts  --      9.6027                 5.5563                 5.5575
 IR Inten    --     43.5570                29.6136                29.4354

                     58                     59                     60
                      A                      A                      A
 Frequencies --   3027.3253              3080.2119              3081.7090
 Red. masses --      1.0360                 1.1012                 1.1015
 Frc consts  --      5.5943                 6.1555                 6.1632
 IR Inten    --     27.7271                 4.6218                 9.3829

                     61                     62                     63
                      A                      A                      A
 Frequencies --   3088.0132              3090.2970              3093.7980
 Red. masses --      1.1024                 1.1006                 1.1018
 Frc consts  --      6.1939                 6.1928                 6.2136
 IR Inten    --     18.4022                93.6313                24.6976

                     64                     65                     66
                      A                      A                      A
 Frequencies --   3096.4277              3146.8117              3169.4790
 Red. masses --      1.1011                 1.0895                 1.0873
 Frc consts  --      6.2204                 6.3565                 6.4353
 IR Inten    --     42.2346                21.5594                10.1094

                     67                     68                     69
                      A                      A                      A
 Frequencies --   3191.2231              3199.3554              3836.4467
 Red. masses --      1.0937                 1.0905                 1.0661
 Frc consts  --      6.5626                 6.5765                 9.2454
 IR Inten    --      9.6365                 5.7141                66.4475

 - Thermochemistry -
 -------------------
 Temperature   298.150 Kelvin.  Pressure   1.00000 Atm.
 Atom     1 has atomic number  6 and mass  12.00000

 Molecular mass:   150.10447 amu.
 Principal axes and moments of inertia in atomic units:
                           1         2         3
     Eigenvalues --   709.059082837.844293147.33689
           X            0.99999  -0.00532   0.00000
           Y            0.00532   0.99999   0.00000
           Z            0.00000   0.00000   1.00000
 This molecule is an asymmetric top.
 Rotational symmetry number  1.
 Warning -- assumption of classical behavior for rotation
           may cause significant error
 Rotational temperatures (Kelvin)      0.12215     0.03052     0.02752
 Rotational constants (GHZ):           2.54526     0.63595     0.57342
 Zero-point vibrational energy     566366.6 (Joules/Mol)
                                  135.36488 (Kcal/Mol)
 Warning -- explicit consideration of  17 degrees of freedom as
           vibrations may cause significant error
 Vibrational temperatures:     61.60   133.93   288.56   306.81   358.17
          (Kelvin)            382.57   429.07   431.07   468.49   476.26
                              520.68   579.86   601.27   635.66   679.50
                              728.35   793.12   944.69   952.54  1053.41
                             1168.88  1182.62  1214.86  1233.46  1328.01
                             1345.85  1354.67  1377.58  1400.32  1477.50
                             1493.28  1506.10  1621.56  1629.22  1706.60
                             1731.16  1758.25  1761.94  1841.88  1846.56
                             1911.21  1959.44  2010.01  2010.12  2056.35
                             2095.31  2131.63  2138.95  2145.65  2163.64
                             2169.92  2188.72  2222.12  2343.35  2378.38
                             4342.55  4344.14  4355.64  4431.73  4433.89
                             4442.96  4446.24  4451.28  4455.06  4527.55
                             4560.17  4591.45  4603.15  5519.78

 Zero-point correction=                           0.215718 (Hartree/Particle)
 Thermal correction to Energy=                    0.226867
 Thermal correction to Enthalpy=                  0.227811
 Thermal correction to Gibbs Free Energy=         0.179568
 Sum of electronic and zero-point Energies=           -464.638302
 Sum of electronic and thermal Energies=              -464.627153
 Sum of electronic and thermal Enthalpies=            -464.626209
 Sum of electronic and thermal Free Energies=         -464.674451

                     E (Thermal)             CV                S
                      KCal/Mol        Cal/Mol-Kelvin    Cal/Mol-Kelvin
 Total                  142.361             44.229            101.535
 Electronic               0.000              0.000              0.000
 Translational            0.889              2.981             40.929
 Rotational               0.889              2.981             30.228
 Vibrational            140.584             38.267             30.379
 Vibration     1          0.595              1.980              5.124
 Vibration     2          0.602              1.954              3.594
 Vibration     3          0.638              1.839              2.128
 Vibration     4          0.644              1.821              2.016
 Vibration     5          0.662              1.765              1.738
 Vibration     6          0.672              1.736              1.623
 Vibration     7          0.691              1.677              1.427
 Vibration     8          0.692              1.674              1.419
 Vibration     9          0.710              1.624              1.282
 Vibration    10          0.713              1.614              1.255
 Vibration    11          0.736              1.551              1.114
 Vibration    12          0.768              1.464              0.952
 Vibration    13          0.781              1.431              0.899
 Vibration    14          0.802              1.379              0.821
 Vibration    15          0.829              1.312              0.731
 Vibration    16          0.861              1.236              0.643
 Vibration    17          0.907              1.137              0.542

 Optimization completed.
    -- Stationary point found.
 Normal termination of Gaussian 09 at Tue Apr 23 11:46:17 2024.
