 Gaussian 09, Revision D.01,
 Gaussian 09:  ES64L-G09RevD.01 24-Apr-2013

 ----------------------------------------------------------------------
 # opt freq=noraman b3lyp/6-311+g(d,p) pop=(npa,hirshfeld,chelpg,mbs) g
 eom=connectivity
 ----------------------------------------------------------------------

 -------------------
 Title Card Required
 -------------------
 Symbolic Z-matrix:
 Charge =  0 Multiplicity = 1

 SCF Done:  E(RB3LYP) =  -767.174259250     A.U. after   15 cycles
 SCF Done:  E(RB3LYP) =  -767.177665052     A.U. after   13 cycles
 SCF Done:  E(RB3LYP) =  -767.179027447     A.U. after   12 cycles
 SCF Done:  E(RB3LYP) =  -767.180620121     A.U. after   14 cycles
 SCF Done:  E(RB3LYP) =  -767.181027098     A.U. after   11 cycles
 SCF Done:  E(RB3LYP) =  -767.181202175     A.U. after   12 cycles
 SCF Done:  E(RB3LYP) =  -767.181205492     A.U. after   10 cycles
 SCF Done:  E(RB3LYP) =  -767.181205829     A.U. after    9 cycles
 Optimization completed.
    -- Stationary point found.
 Normal termination of Gaussian 09 at Tue Apr 23 11:53:31 2024.

 ----------------------------------------------------------------------
 #N Geom=AllCheck Guess=TCheck SCRF=Check GenChk RB3LYP/6-311+G(d,p) Fr
 eq
 ----------------------------------------------------------------------

 Structure from the checkpoint file:  "29.chk"
 -------------------
 Title Card Required
 -------------------
 Charge =  0 Multiplicity = 1

                         Standard orientation:
 ---------------------------------------------------------------------
 Center     Atomic      Atomic             Coordinates (Angstroms)
 Number     Number       Type             X           Y           Z
 ---------------------------------------------------------------------
      1          6           0        0.774411    1.817635   -0.000020
      2          6           0        1.807561    0.883325    0.000063
      3          6           0        1.502129   -0.478839   -0.000062
      4          6           0        0.172920   -0.905836   -0.000057
      5          6           0       -0.833842    0.049659   -0.000125
      6          6           0       -0.558352    1.415035   -0.000045
      7          1           0        1.011835    2.875183    0.000076
      8          1           0        2.842550    1.210622    0.000198
      9          1           0       -1.363558    2.137102    0.000098
     10         17           0       -2.509227   -0.487032    0.000048
     11          1           0       -0.051990   -1.963871   -0.000041
     12          8           0        2.461596   -1.451998    0.000053
     13          1           0        3.336284   -1.049369   -0.000081
 ---------------------------------------------------------------------

 SCF Done:  E(RB3LYP) =  -767.181205829     A.U. after    1 cycles

 The electronic state is 1-A.
 Alpha  occ. eigenvalues -- -101.55597 -19.17196 -10.25700 -10.24741 -10.19760
 Alpha  occ. eigenvalues --  -10.19169 -10.19020 -10.18859  -9.47056  -7.23515
 Alpha  occ. eigenvalues --   -7.22542  -7.22505  -1.08387  -0.89932  -0.84428
 Alpha  occ. eigenvalues --   -0.76870  -0.74571  -0.64016  -0.63000  -0.55442
 Alpha  occ. eigenvalues --   -0.52160  -0.49584  -0.46009  -0.44492  -0.43406
 Alpha  occ. eigenvalues --   -0.41804  -0.39059  -0.38373  -0.36820  -0.33092
 Alpha  occ. eigenvalues --   -0.31989  -0.26396  -0.24576
 Alpha virt. eigenvalues --   -0.03304  -0.01867  -0.01186   0.00186   0.01599
 Alpha virt. eigenvalues --    0.02496   0.03803   0.04926   0.05079   0.05648
 Alpha virt. eigenvalues --    0.08212   0.08431   0.08524   0.08753   0.11556

 Mulliken charges:
               1
     1  C   -0.444045
     2  C    0.164258
     3  C   -0.606357
     4  C   -0.051272
     5  C    0.634847
     6  C   -0.541595
     7  H    0.134987
     8  H    0.109138
     9  H    0.146446
    10  Cl   0.309903
    11  H    0.152154
    12  O   -0.257166
    13  H    0.248702
 Sum of Mulliken charges =   0.00000

 Dipole moment (field-independent basis, Debye):
    X=              2.6384    Y=              1.6120    Z=              0.0000  Tot=              3.0919
 Quadrupole moment (field-independent basis, Debye-Ang):
   XX=            -46.3727   YY=            -51.7717   ZZ=            -57.1318
   XY=              1.5496   XZ=             -0.0007   YZ=              0.0010

  Exact polarizability: 114.716   2.127  91.061   0.000   0.000  48.472
 Approx polarizability: 174.579   1.081 149.592   0.001   0.000  71.488

 ESP charges:
               1
     1  C   -0.061859
     2  C   -0.296569
     3  C    0.404214
     4  C   -0.193789
     5  C    0.110468
     6  C   -0.136921
     7  H    0.111489
     8  H    0.131290
     9  H    0.109196
    10  Cl  -0.142778
    11  H    0.152479
    12  O   -0.607795
    13  H    0.420578
 Sum of ESP charges =   0.00000

 Summary of Natural Population Analysis:

                                       Natural Population
                Natural  -----------------------------------------------
    Atom  No    Charge         Core      Valence    Rydberg      Total
 -----------------------------------------------------------------------
      C    1   -0.16782      1.99918     4.15087    0.01778     6.16782
      C    2   -0.29073      1.99906     4.27380    0.01787     6.29073
      C    3    0.33066      1.99879     3.64643    0.02412     5.66934
      C    4   -0.27835      1.99886     4.26011    0.01938     6.27835
      C    5   -0.01694      1.99861     3.99522    0.02311     6.01694
      C    6   -0.25989      1.99896     4.24135    0.01958     6.25989
      H    7    0.21195      0.00000     0.78650    0.00155     0.78805
      H    8    0.20607      0.00000     0.79201    0.00192     0.79393
      H    9    0.22488      0.00000     0.77350    0.00163     0.77512
     Cl   10    0.00268      9.99961     6.97784    0.01987    16.99732
      H   11    0.23687      0.00000     0.76113    0.00200     0.76313
      O   12   -0.67070      1.99975     6.65860    0.01235     8.67070
      H   13    0.47133      0.00000     0.52435    0.00432     0.52867
 =======================================================================
   * Total *    0.00000     23.99282    41.84171    0.16548    66.00000

                      1                      2                      3
                      A                      A                      A
 Frequencies --    181.1420               229.4487               248.7530
 Red. masses --      5.2560                 4.3065                 8.7486
 Frc consts  --      0.1016                 0.1336                 0.3190
 IR Inten    --      2.8873                 0.6343                 0.9556

                      4                      5                      6
                      A                      A                      A
 Frequencies --    311.7406               407.3270               444.3328
 Red. masses --      1.1217                10.9994                 3.9610
 Frc consts  --      0.0642                 1.0752                 0.4608
 IR Inten    --    111.8004                 4.5878                 9.2550

                      7                      8                      9
                      A                      A                      A
 Frequencies --    452.3028               536.5397               584.6712
 Red. masses --      3.0455                 7.2147                 4.7607
 Frc consts  --      0.3671                 1.2237                 0.9588
 IR Inten    --      1.6213                 2.7129                 0.8128

                     10                     11                     12
                      A                      A                      A
 Frequencies --    682.1247               695.1238               771.7112
 Red. masses --      2.3789                 7.3953                 1.4129
 Frc consts  --      0.6522                 2.1054                 0.4958
 IR Inten    --     17.1340                 8.4051                54.2016

                     13                     14                     15
                      A                      A                      A
 Frequencies --    871.6078               873.8523               894.8697
 Red. masses --      1.3837                 1.4811                 6.4095
 Frc consts  --      0.6194                 0.6664                 3.0241
 IR Inten    --      0.2100                21.8369               108.1110

                     16                     17                     18
                      A                      A                      A
 Frequencies --    972.2865              1009.3016              1087.7203
 Red. masses --      1.2911                 5.8766                 1.9514
 Frc consts  --      0.7191                 3.5271                 1.3603
 IR Inten    --      0.0318                 5.5441                30.2909

                     19                     20                     21
                      A                      A                      A
 Frequencies --   1108.3029              1184.2448              1192.3935
 Red. masses --      1.5497                 1.2029                 1.2694
 Frc consts  --      1.1215                 0.9939                 1.0634
 IR Inten    --      0.0410                26.4474               111.6926

                     22                     23                     24
                      A                      A                      A
 Frequencies --   1271.5087              1322.4438              1343.3739
 Red. masses --      2.6194                 1.5792                 4.6845
 Frc consts  --      2.4951                 1.6272                 4.9809
 IR Inten    --     28.2007                80.8506                 8.8523

                     25                     26                     27
                      A                      A                      A
 Frequencies --   1488.0621              1504.7560              1625.9341
 Red. masses --      2.5733                 2.5073                 6.4020
 Frc consts  --      3.3573                 3.3449                 9.9718
 IR Inten    --     23.1036                93.5070                63.1164

                     28                     29                     30
                      A                      A                      A
 Frequencies --   1637.9756              3158.4289              3182.7918
 Red. masses --      5.9577                 1.0888                 1.0919
 Frc consts  --      9.4177                 6.3993                 6.5172
 IR Inten    --    132.1181                10.3466                 8.1905

                     31                     32                     33
                      A                      A                      A
 Frequencies --   3210.6522              3212.0361              3835.9591
 Red. masses --      1.0940                 1.0927                 1.0662
 Frc consts  --      6.6441                 6.6421                 9.2438
 IR Inten    --      1.0891                 0.4949                73.8387

 - Thermochemistry -
 -------------------
 Temperature   298.150 Kelvin.  Pressure   1.00000 Atm.
 Atom     1 has atomic number  6 and mass  12.00000

 Molecular mass:   128.00289 amu.
 Principal axes and moments of inertia in atomic units:
                           1         2         3
     Eigenvalues --   524.881591516.870082041.75166
           X            0.99999  -0.00336   0.00000
           Y            0.00336   0.99999   0.00001
           Z            0.00000  -0.00001   1.00000
 This molecule is an asymmetric top.
 Rotational symmetry number  1.
 Warning -- assumption of classical behavior for rotation
           may cause significant error
 Rotational temperatures (Kelvin)      0.16502     0.05710     0.04242
 Rotational constants (GHZ):           3.43838     1.18978     0.88392
 Zero-point vibrational energy     248426.8 (Joules/Mol)
                                   59.37543 (Kcal/Mol)
 Warning -- explicit consideration of   9 degrees of freedom as
           vibrations may cause significant error
 Vibrational temperatures:    260.62   330.13   357.90   448.52   586.05
          (Kelvin)            639.30   650.76   771.96   841.21   981.42
                             1000.13  1110.32  1254.05  1257.28  1287.52
                             1398.90  1452.16  1564.98  1594.60  1703.86
                             1715.59  1829.42  1902.70  1932.81  2140.99
                             2165.01  2339.35  2356.68  4544.27  4579.32
                             4619.41  4621.40  5519.08

 Zero-point correction=                           0.094621 (Hartree/Particle)
 Thermal correction to Energy=                    0.101360
 Thermal correction to Enthalpy=                  0.102304
 Thermal correction to Gibbs Free Energy=         0.063316
 Sum of electronic and zero-point Energies=           -767.086585
 Sum of electronic and thermal Energies=              -767.079846
 Sum of electronic and thermal Enthalpies=            -767.078901
 Sum of electronic and thermal Free Energies=         -767.117890

                     E (Thermal)             CV                S
                      KCal/Mol        Cal/Mol-Kelvin    Cal/Mol-Kelvin
 Total                   63.604             25.880             82.059
 Electronic               0.000              0.000              0.000
 Translational            0.889              2.981             40.454
 Rotational               0.889              2.981             28.876
 Vibrational             61.827             19.918             12.728
 Vibration     1          0.630              1.865              2.317
 Vibration     2          0.652              1.796              1.883
 Vibration     3          0.662              1.765              1.739
 Vibration     4          0.700              1.651              1.353
 Vibration     5          0.772              1.454              0.936
 Vibration     6          0.804              1.373              0.813
 Vibration     7          0.811              1.356              0.789
 Vibration     8          0.892              1.169              0.573
 Vibration     9          0.942              1.065              0.477

 Optimization completed.
    -- Stationary point found.
 Normal termination of Gaussian 09 at Tue Apr 23 11:54:16 2024.
