 Gaussian 09, Revision D.01,
 Gaussian 09:  ES64L-G09RevD.01 24-Apr-2013

 ----------------------------------------------------------------------
 # opt=rcfc geom=allcheck guess=read freq=noraman b3lyp/6-311+g(d,p) po
 p=(npa,hirshfeld,chelpg,mbs)
 ----------------------------------------------------------------------

 Structure from the checkpoint file:  "methylchlorosilanes6_Suginome.chk"
 -------------------
 Title Card Required
 -------------------
 Charge =  0 Multiplicity = 1

 SCF Done:  E(RB3LYP) =  -1329.23460365     A.U. after    1 cycles
 SCF Done:  E(RB3LYP) =  -1329.23460371     A.U. after    6 cycles
 Optimization completed.
    -- Stationary point found.
 Normal termination of Gaussian 09 at Tue Jan 10 09:33:37 2023.

 ----------------------------------------------------------------------
 #N Geom=AllCheck Guess=TCheck SCRF=Check GenChk RB3LYP/6-311+G(d,p) Fr
 eq
 ----------------------------------------------------------------------

 Structure from the checkpoint file:  "methylchlorosilanes6_Suginome.chk"
 -------------------
 Title Card Required
 -------------------
 Charge =  0 Multiplicity = 1

                         Standard orientation:
 ---------------------------------------------------------------------
 Center     Atomic      Atomic             Coordinates (Angstroms)
 Number     Number       Type             X           Y           Z
 ---------------------------------------------------------------------
      1         14           0        0.037388    0.516968    0.000000
      2         17           0       -1.784358    1.575056    0.000000
      3          6           0        0.965455    0.951483    1.562536
      4          1           0        0.367975    0.732182    2.450898
      5          1           0        1.894513    0.377738    1.625690
      6          1           0        1.218272    2.014839    1.578816
      7          6           0       -0.497980   -1.302012    0.000000
      8          1           0       -1.080582   -1.559328   -0.884187
      9          1           0       -1.080582   -1.559328    0.884187
     10          6           0        0.965455    0.951483   -1.562536
     11          1           0        1.218272    2.014839   -1.578816
     12          1           0        1.894513    0.377738   -1.625690
     13          1           0        0.367975    0.732182   -2.450898
     14         17           0        0.965455   -2.397064    0.000000
 ---------------------------------------------------------------------

 SCF Done:  E(RB3LYP) =  -1329.23460371     A.U. after    1 cycles

 The electronic state is 1-A'.
 Alpha  occ. eigenvalues -- -101.55169-101.53805 -66.14073 -10.22817 -10.16863
 Alpha  occ. eigenvalues --  -10.16863  -9.46564  -9.45336  -7.23034  -7.22042
 Alpha  occ. eigenvalues --   -7.22025  -7.21522  -7.20948  -7.20932  -5.31102
 Alpha  occ. eigenvalues --   -3.67210  -3.66809  -3.66725  -0.85780  -0.82393
 Alpha  occ. eigenvalues --   -0.72813  -0.70470  -0.68084  -0.50473  -0.46619
 Alpha  occ. eigenvalues --   -0.44675  -0.43500  -0.42257  -0.41862  -0.41262
 Alpha  occ. eigenvalues --   -0.37954  -0.36515  -0.35333  -0.32787  -0.31150
 Alpha  occ. eigenvalues --   -0.31089  -0.29302
 Alpha virt. eigenvalues --   -0.01984  -0.01327   0.01233   0.01289   0.02956
 Alpha virt. eigenvalues --    0.03338   0.04166   0.04961   0.06297   0.06618
 Alpha virt. eigenvalues --    0.06866   0.07859   0.08395   0.08561   0.09137

 Mulliken charges:
               1
     1  Si   0.571582
     2  Cl  -0.169110
     3  C   -0.648252
     4  H    0.175308
     5  H    0.180118
     6  H    0.174261
     7  C   -0.691893
     8  H    0.222397
     9  H    0.222397
    10  C   -0.648252
    11  H    0.174261
    12  H    0.180118
    13  H    0.175308
    14  Cl   0.081758
 Sum of Mulliken charges =   0.00000

 Dipole moment (field-independent basis, Debye):
    X=              0.8295    Y=              0.3986    Z=              0.0000  Tot=              0.9202
 Quadrupole moment (field-independent basis, Debye-Ang):
   XX=            -61.7984   YY=            -64.7565   ZZ=            -57.8899
   XY=              6.3388   XZ=              0.0000   YZ=              0.0000

  Exact polarizability:  86.942 -11.040  89.139   0.000   0.000  76.984
 Approx polarizability: 126.382 -18.510 117.235   0.000   0.000 103.045

 ESP charges:
               1
     1  Si   0.685584
     2  Cl  -0.315847
     3  C   -0.341229
     4  H    0.078422
     5  H    0.075071
     6  H    0.084569
     7  C   -0.210050
     8  H    0.110643
     9  H    0.110643
    10  C   -0.341229
    11  H    0.084569
    12  H    0.075071
    13  H    0.078422
    14  Cl  -0.174639
 Sum of ESP charges =   0.00000

 Summary of Natural Population Analysis:

                                       Natural Population
                Natural  -----------------------------------------------
    Atom  No    Charge         Core      Valence    Rydberg      Total
 -----------------------------------------------------------------------
     Si    1    1.55754      9.99817     2.39080    0.05348    12.44246
     Cl    2   -0.38362      9.99969     7.37288    0.01105    17.38362
      C    3   -1.09439      1.99928     5.08238    0.01273     7.09439
      H    4    0.24112      0.00000     0.75784    0.00103     0.75888
      H    5    0.24364      0.00000     0.75509    0.00127     0.75636
      H    6    0.24008      0.00000     0.75896    0.00096     0.75992
      C    7   -0.82654      1.99901     4.80414    0.02340     6.82654
      H    8    0.23323      0.00000     0.76522    0.00155     0.76677
      H    9    0.23323      0.00000     0.76522    0.00155     0.76677
      C   10   -1.09439      1.99928     5.08238    0.01273     7.09439
      H   11    0.24008      0.00000     0.75896    0.00096     0.75992
      H   12    0.24364      0.00000     0.75509    0.00127     0.75636
      H   13    0.24112      0.00000     0.75784    0.00103     0.75888
     Cl   14   -0.07475      9.99976     7.05719    0.01780    17.07475
 =======================================================================
   * Total *    0.00000     35.99519    37.86400    0.14081    74.00000

                      1                      2                      3
                     A"                     A'                     A"
 Frequencies --     63.7377               107.4069               148.2123
 Red. masses --      3.6521                 6.2657                 1.0375
 Frc consts  --      0.0087                 0.0426                 0.0134
 IR Inten    --      3.5247                 5.4782                 0.0878

                      4                      5                      6
                     A'                     A"                     A'
 Frequencies --    158.5450               178.9015               179.1778
 Red. masses --      1.0319                 2.8192                 4.5759
 Frc consts  --      0.0153                 0.0532                 0.0866
 IR Inten    --      0.0566                 1.4416                 0.1292

                      7                      8                      9
                     A'                     A"                     A'
 Frequencies --    220.0300               228.5912               261.6180
 Red. masses --      2.9925                 2.7289                 4.2478
 Frc consts  --      0.0854                 0.0840                 0.1713
 IR Inten    --      4.6279                 4.1105                 6.6363

                     10                     11                     12
                     A'                     A'                     A'
 Frequencies --    477.8582               608.9994               674.2379
 Red. masses --      8.3102                 4.7920                 5.5895
 Frc consts  --      1.1180                 1.0471                 1.4971
 IR Inten    --     80.2780                42.6331                17.7199

                     13                     14                     15
                     A"                     A"                     A'
 Frequencies --    685.3610               710.7706               755.2634
 Red. masses --      1.3528                 1.8130                 3.2867
 Frc consts  --      0.3744                 0.5397                 1.1046
 IR Inten    --      0.0250                 5.3409                16.2810

                     16                     17                     18
                     A"                     A"                     A'
 Frequencies --    784.6489               848.0238               851.7401
 Red. masses --      1.4099                 1.8985                 1.4856
 Frc consts  --      0.5114                 0.8044                 0.6350
 IR Inten    --     10.1138                86.0287               109.1024

                     19                     20                     21
                     A'                     A"                     A'
 Frequencies --    884.8817              1125.8988              1216.8594
 Red. masses --      1.5994                 1.0361                 1.2270
 Frc consts  --      0.7379                 0.7738                 1.0705
 IR Inten    --     78.1560                 2.2569                 5.8613

                     22                     23                     24
                     A"                     A'                     A'
 Frequencies --   1303.7805              1309.8945              1437.9517
 Red. masses --      1.2511                 1.2273                 1.0779
 Frc consts  --      1.2530                 1.2407                 1.3132
 IR Inten    --     43.1582                19.0152                11.6215

                     25                     26                     27
                     A"                     A"                     A'
 Frequencies --   1452.0609              1454.8250              1461.1166
 Red. masses --      1.0510                 1.0500                 1.0465
 Frc consts  --      1.3056                 1.3094                 1.3163
 IR Inten    --      0.4624                 1.3778                 8.5870

                     28                     29                     30
                     A'                     A"                     A'
 Frequencies --   1467.3836              3031.1682              3032.4246
 Red. masses --      1.0469                 1.0345                 1.0344
 Frc consts  --      1.3281                 5.6004                 5.6045
 IR Inten    --      5.7719                 1.9024                 1.3405

                     31                     32                     33
                     A'                     A"                     A'
 Frequencies --   3079.7317              3104.7389              3106.5506
 Red. masses --      1.0567                 1.1005                 1.1002
 Frc consts  --      5.9052                 6.2500                 6.2558
 IR Inten    --      6.9300                 0.3076                 8.7690

                     34                     35                     36
                     A"                     A'                     A"
 Frequencies --   3109.7188              3110.0825              3138.7454
 Red. masses --      1.1007                 1.1008                 1.1083
 Frc consts  --      6.2714                 6.2736                 6.4333
 IR Inten    --      3.2907                 7.3184                 0.8876

 - Thermochemistry -
 -------------------
 Temperature   298.150 Kelvin.  Pressure   1.00000 Atm.
 Atom     1 has atomic number 14 and mass  27.97693

 Molecular mass:   141.97723 amu.
 Principal axes and moments of inertia in atomic units:
                           1         2         3
     Eigenvalues --   667.264191828.149611905.24868
           X           -0.48900   0.87229   0.00000
           Y            0.87229   0.48900   0.00000
           Z            0.00000   0.00000   1.00000
 This molecule is an asymmetric top.
 Rotational symmetry number  1.
 Warning -- assumption of classical behavior for rotation
           may cause significant error
 Rotational temperatures (Kelvin)      0.12980     0.04738     0.04546
 Rotational constants (GHZ):           2.70469     0.98720     0.94725
 Zero-point vibrational energy     273771.0 (Joules/Mol)
                                   65.43284 (Kcal/Mol)
 Warning -- explicit consideration of  11 degrees of freedom as
           vibrations may cause significant error
 Vibrational temperatures:     91.70   154.53   213.24   228.11   257.40
          (Kelvin)            257.80   316.57   328.89   376.41   687.53
                              876.21   970.08   986.08  1022.64  1086.65
                             1128.93  1220.12  1225.46  1273.15  1619.92
                             1750.79  1875.85  1884.64  2068.89  2089.19
                             2093.17  2102.22  2111.24  4361.17  4362.98
                             4431.04  4467.02  4469.63  4474.19  4474.71
                             4515.95

 Zero-point correction=                           0.104274 (Hartree/Particle)
 Thermal correction to Energy=                    0.113814
 Thermal correction to Enthalpy=                  0.114758
 Thermal correction to Gibbs Free Energy=         0.068971
 Sum of electronic and zero-point Energies=          -1329.130330
 Sum of electronic and thermal Energies=             -1329.120790
 Sum of electronic and thermal Enthalpies=           -1329.119846
 Sum of electronic and thermal Free Energies=        -1329.165633

                     E (Thermal)             CV                S
                      KCal/Mol        Cal/Mol-Kelvin    Cal/Mol-Kelvin
 Total                   71.419             31.870             96.368
 Electronic               0.000              0.000              0.000
 Translational            0.889              2.981             40.763
 Rotational               0.889              2.981             29.232
 Vibrational             69.642             25.908             26.373
 Vibration     1          0.597              1.972              4.338
 Vibration     2          0.606              1.943              3.315
 Vibration     3          0.618              1.905              2.695
 Vibration     4          0.621              1.893              2.567
 Vibration     5          0.629              1.868              2.340
 Vibration     6          0.629              1.868              2.337
 Vibration     7          0.647              1.811              1.959
 Vibration     8          0.651              1.797              1.890
 Vibration     9          0.669              1.743              1.651
 Vibration    10          0.834              1.299              0.716
 Vibration    11          0.968              1.013              0.434

 Optimization completed.
    -- Stationary point found.
 Normal termination of Gaussian 09 at Tue Jan 10 09:34:04 2023.
