 Gaussian 09, Revision D.01,
 Gaussian 09:  ES64L-G09RevD.01 24-Apr-2013

 ----------------------------------------------------------------------
 # opt freq=noraman b3lyp/6-311+g(d,p) pop=(npa,hirshfeld,chelpg,mbs) g
 eom=connectivity
 ----------------------------------------------------------------------

 -------------------
 Title Card Required
 -------------------
 Symbolic Z-matrix:
 Charge =  0 Multiplicity = 1

 SCF Done:  E(RB3LYP) =  -468.246689857     A.U. after   13 cycles
 SCF Done:  E(RB3LYP) =  -468.258597030     A.U. after   12 cycles
 SCF Done:  E(RB3LYP) =  -468.259998076     A.U. after   11 cycles
 SCF Done:  E(RB3LYP) =  -468.260421234     A.U. after   11 cycles
 SCF Done:  E(RB3LYP) =  -468.260896920     A.U. after   13 cycles
 SCF Done:  E(RB3LYP) =  -468.261114369     A.U. after   10 cycles
 SCF Done:  E(RB3LYP) =  -468.261208150     A.U. after   10 cycles
 SCF Done:  E(RB3LYP) =  -468.261211544     A.U. after    9 cycles
 SCF Done:  E(RB3LYP) =  -468.261211722     A.U. after    9 cycles
 SCF Done:  E(RB3LYP) =  -468.261212052     A.U. after    8 cycles
 Optimization completed.
    -- Stationary point found.
 Normal termination of Gaussian 09 at Tue Apr 23 15:06:21 2024.

 ----------------------------------------------------------------------
 #N Geom=AllCheck Guess=TCheck SCRF=Check GenChk RB3LYP/6-311+G(d,p) Fr
 eq
 ----------------------------------------------------------------------

 Structure from the checkpoint file:  "89.chk"
 -------------------
 Title Card Required
 -------------------
 Charge =  0 Multiplicity = 1

                         Standard orientation:
 ---------------------------------------------------------------------
 Center     Atomic      Atomic             Coordinates (Angstroms)
 Number     Number       Type             X           Y           Z
 ---------------------------------------------------------------------
      1          6           0        1.209496    1.399730   -0.000080
      2          6           0        1.226278    0.000859   -0.000041
      3          6           0        0.000000   -0.672216    0.000000
      4          6           0       -1.226278    0.000859    0.000041
      5          6           0       -1.209496    1.399730    0.000080
      6          6           0        0.000000    2.090597    0.000000
      7          1           0        2.140580    1.956613   -0.000183
      8          1           0       -2.140580    1.956613    0.000183
      9          1           0        0.000000    3.175507    0.000000
     10          6           0       -2.533794   -0.779546   -0.000068
     11          1           0       -2.268241   -1.843010   -0.000343
     12          6           0        2.533794   -0.779546    0.000068
     13          1           0        2.268241   -1.843010    0.000343
     14          1           0        0.000000   -1.759225    0.000000
     15          6           0       -3.362499   -0.512085    1.269440
     16          1           0       -3.676156    0.534558    1.325098
     17          1           0       -4.265119   -1.130748    1.278762
     18          1           0       -2.786917   -0.735512    2.171365
     19          6           0       -3.362635   -0.511539   -1.269386
     20          1           0       -2.787107   -0.734523   -2.171450
     21          1           0       -4.265198   -1.130281   -1.278876
     22          1           0       -3.676396    0.535105   -1.324541
     23          6           0        3.362635   -0.511539    1.269386
     24          1           0        2.787107   -0.734523    2.171450
     25          1           0        4.265198   -1.130281    1.278876
     26          1           0        3.676396    0.535105    1.324541
     27          6           0        3.362499   -0.512085   -1.269440
     28          1           0        4.265119   -1.130748   -1.278762
     29          1           0        2.786917   -0.735512   -2.171365
     30          1           0        3.676156    0.534558   -1.325098
 ---------------------------------------------------------------------

 SCF Done:  E(RB3LYP) =  -468.261212052     A.U. after    1 cycles

 The electronic state is 1-A.
 Alpha  occ. eigenvalues --  -10.18072 -10.18071 -10.17769 -10.17769 -10.17229
 Alpha  occ. eigenvalues --  -10.16799 -10.16795 -10.16743 -10.15965 -10.15965
 Alpha  occ. eigenvalues --  -10.15965 -10.15964  -0.86344  -0.81442  -0.78947
 Alpha  occ. eigenvalues --   -0.73817  -0.72463  -0.68589  -0.68581  -0.62976
 Alpha  occ. eigenvalues --   -0.60735  -0.59043  -0.53876  -0.50783  -0.48114
 Alpha  occ. eigenvalues --   -0.46097  -0.44133  -0.44076  -0.42296  -0.42263
 Alpha  occ. eigenvalues --   -0.41932  -0.41185  -0.38931  -0.38805  -0.38230
 Alpha  occ. eigenvalues --   -0.37231  -0.36004  -0.34676  -0.34609  -0.33565
 Alpha  occ. eigenvalues --   -0.33440  -0.32416  -0.31631  -0.24954  -0.24046
 Alpha virt. eigenvalues --   -0.01110  -0.00945  -0.00078   0.00921   0.01388
 Alpha virt. eigenvalues --    0.02592   0.02819   0.03031   0.03522   0.04187
 Alpha virt. eigenvalues --    0.05423   0.05662   0.06042   0.06168   0.06544

 Mulliken charges:
               1
     1  C   -0.204913
     2  C    0.299870
     3  C   -0.508519
     4  C    0.299870
     5  C   -0.204913
     6  C   -0.343717
     7  H    0.113456
     8  H    0.113456
     9  H    0.121309
    10  C    0.322536
    11  H    0.109880
    12  C    0.322536
    13  H    0.109880
    14  H    0.100548
    15  C   -0.572814
    16  H    0.137733
    17  H    0.132309
    18  H    0.139942
    19  C   -0.572788
    20  H    0.139947
    21  H    0.132309
    22  H    0.137723
    23  C   -0.572788
    24  H    0.139947
    25  H    0.132309
    26  H    0.137723
    27  C   -0.572814
    28  H    0.132309
    29  H    0.139942
    30  H    0.137733
 Sum of Mulliken charges =   0.00000

 Dipole moment (field-independent basis, Debye):
    X=              0.0000    Y=             -0.3931    Z=              0.0000  Tot=              0.3931
 Quadrupole moment (field-independent basis, Debye-Ang):
   XX=            -72.8200   YY=            -72.8933   ZZ=            -80.3399
   XY=              0.0000   XZ=             -0.0001   YZ=              0.0000

  Exact polarizability: 181.411   0.000 136.545  -0.001   0.000 111.631
 Approx polarizability: 239.971   0.000 226.890  -0.004   0.000 158.053

 ESP charges:
               1
     1  C   -0.254309
     2  C    0.209791
     3  C   -0.357404
     4  C    0.209791
     5  C   -0.254309
     6  C   -0.026745
     7  H    0.127971
     8  H    0.127971
     9  H    0.075932
    10  C    0.190212
    11  H   -0.000008
    12  C    0.190212
    13  H   -0.000008
    14  H    0.098981
    15  C   -0.187169
    16  H    0.037138
    17  H    0.051078
    18  H    0.014423
    19  C   -0.187113
    20  H    0.014391
    21  H    0.051052
    22  H    0.037160
    23  C   -0.187113
    24  H    0.014391
    25  H    0.051052
    26  H    0.037160
    27  C   -0.187169
    28  H    0.051078
    29  H    0.014423
    30  H    0.037138
 Sum of ESP charges =   0.00000

 Summary of Natural Population Analysis:

                                       Natural Population
                Natural  -----------------------------------------------
    Atom  No    Charge         Core      Valence    Rydberg      Total
 -----------------------------------------------------------------------
      C    1   -0.21645      1.99903     4.20098    0.01644     6.21645
      C    2   -0.01182      1.99900     3.99209    0.02073     6.01182
      C    3   -0.20469      1.99894     4.19003    0.01572     6.20469
      C    4   -0.01182      1.99900     3.99209    0.02073     6.01182
      C    5   -0.21645      1.99903     4.20098    0.01644     6.21645
      C    6   -0.18942      1.99917     4.17146    0.01879     6.18942
      H    7    0.20243      0.00000     0.79586    0.00170     0.79757
      H    8    0.20243      0.00000     0.79586    0.00170     0.79757
      H    9    0.20292      0.00000     0.79546    0.00162     0.79708
      C   10   -0.23832      1.99918     4.22311    0.01603     6.23832
      H   11    0.19195      0.00000     0.80505    0.00300     0.80805
      C   12   -0.23832      1.99918     4.22311    0.01603     6.23832
      H   13    0.19195      0.00000     0.80505    0.00300     0.80805
      H   14    0.19894      0.00000     0.79894    0.00212     0.80106
      C   15   -0.56323      1.99934     4.55440    0.00949     6.56323
      H   16    0.19478      0.00000     0.80380    0.00142     0.80522
      H   17    0.19804      0.00000     0.80067    0.00129     0.80196
      H   18    0.20457      0.00000     0.79435    0.00108     0.79543
      C   19   -0.56323      1.99934     4.55440    0.00949     6.56323
      H   20    0.20458      0.00000     0.79435    0.00108     0.79542
      H   21    0.19804      0.00000     0.80067    0.00129     0.80196
      H   22    0.19478      0.00000     0.80380    0.00142     0.80522
      C   23   -0.56323      1.99934     4.55440    0.00949     6.56323
      H   24    0.20458      0.00000     0.79435    0.00108     0.79542
      H   25    0.19804      0.00000     0.80067    0.00129     0.80196
      H   26    0.19478      0.00000     0.80380    0.00142     0.80522
      C   27   -0.56323      1.99934     4.55440    0.00949     6.56323
      H   28    0.19804      0.00000     0.80067    0.00129     0.80196
      H   29    0.20457      0.00000     0.79435    0.00108     0.79543
      H   30    0.19478      0.00000     0.80380    0.00142     0.80522
 =======================================================================
   * Total *    0.00000     23.98989    65.80298    0.20713    90.00000

                      1                      2                      3
                      A                      A                      A
 Frequencies --     30.6928                33.1991               123.9763
 Red. masses --      2.9318                 2.5775                 2.9186
 Frc consts  --      0.0016                 0.0017                 0.0264
 IR Inten    --      0.0428                 0.0000                 1.0625

                      4                      5                      6
                      A                      A                      A
 Frequencies --    128.1907               148.2259               225.7453
 Red. masses --      3.0481                 2.9523                 1.0522
 Frc consts  --      0.0295                 0.0382                 0.0316
 IR Inten    --      0.0000                 0.0882                 0.0000

                      7                      8                      9
                      A                      A                      A
 Frequencies --    226.8954               232.5050               243.8981
 Red. masses --      1.0589                 1.3309                 1.4415
 Frc consts  --      0.0321                 0.0424                 0.0505
 IR Inten    --      0.0048                 0.0228                 0.0082

                     10                     11                     12
                      A                      A                      A
 Frequencies --    264.7701               269.4509               309.9564
 Red. masses --      1.6969                 1.7987                 3.0964
 Frc consts  --      0.0701                 0.0769                 0.1753
 IR Inten    --      0.0044                 0.3565                 0.0000

                     13                     14                     15
                      A                      A                      A
 Frequencies --    334.2188               335.9186               436.4316
 Red. masses --      3.3456                 2.5149                 2.4372
 Frc consts  --      0.2202                 0.1672                 0.2735
 IR Inten    --      0.7583                 0.1228                 0.0770

                     16                     17                     18
                      A                      A                      A
 Frequencies --    484.5038               485.6662               582.1660
 Red. masses --      3.0638                 3.6439                 2.6139
 Frc consts  --      0.4237                 0.5064                 0.5220
 IR Inten    --      6.5303                 1.3218                 0.0520

                     19                     20                     21
                      A                      A                      A
 Frequencies --    584.1840               650.0540               715.4718
 Red. masses --      3.0759                 4.1841                 4.3677
 Frc consts  --      0.6185                 1.0417                 1.3173
 IR Inten    --      0.0001                 0.0000                 0.0895

                     22                     23                     24
                      A                      A                      A
 Frequencies --    723.9909               807.8589               814.2008
 Red. masses --      1.7370                 3.5675                 1.6486
 Frc consts  --      0.5364                 1.3718                 0.6439
 IR Inten    --     32.0890                 2.2674                19.8225

                     25                     26                     27
                      A                      A                      A
 Frequencies --    886.3557               912.8553               919.9879
 Red. masses --      2.5824                 1.4527                 1.4129
 Frc consts  --      1.1954                 0.7132                 0.7046
 IR Inten    --      0.2898                 5.2586                 0.0000

                     28                     29                     30
                      A                      A                      A
 Frequencies --    931.9404               934.1408               940.4299
 Red. masses --      1.1790                 1.2053                 2.3313
 Frc consts  --      0.6033                 0.6197                 1.2148
 IR Inten    --      0.0000                 2.7706                 8.7596

                     31                     32                     33
                      A                      A                      A
 Frequencies --    961.1287               961.1451               992.0545
 Red. masses --      1.5053                 1.5261                 1.3204
 Frc consts  --      0.8193                 0.8306                 0.7656
 IR Inten    --      0.0000                 0.0055                 0.0604

                     34                     35                     36
                      A                      A                      A
 Frequencies --   1014.8923              1068.3617              1069.4947
 Red. masses --      6.0434                 1.7362                 1.5052
 Frc consts  --      3.6675                 1.1676                 1.0144
 IR Inten    --      0.1153                11.2770                13.5912

                     37                     38                     39
                      A                      A                      A
 Frequencies --   1118.5945              1119.9644              1126.9936
 Red. masses --      2.3522                 2.3645                 1.4652
 Frc consts  --      1.7340                 1.7474                 1.0964
 IR Inten    --      2.5312                 0.0000                 0.2894

                     40                     41                     42
                      A                      A                      A
 Frequencies --   1169.6507              1171.4280              1197.5225
 Red. masses --      1.6243                 2.0415                 1.1341
 Frc consts  --      1.3092                 1.6505                 0.9582
 IR Inten    --      0.0360                 0.2663                 0.0160

                     43                     44                     45
                      A                      A                      A
 Frequencies --   1204.9753              1260.4240              1296.4979
 Red. masses --      1.7188                 2.6251                 2.6253
 Frc consts  --      1.4704                 2.4571                 2.6000
 IR Inten    --      7.1999                 1.0935                 7.0597

                     46                     47                     48
                      A                      A                      A
 Frequencies --   1343.0878              1345.4690              1345.6266
 Red. masses --      1.7042                 1.9595                 1.3125
 Frc consts  --      1.8112                 2.0900                 1.4002
 IR Inten    --      0.7559                 0.9316                 0.0000

                     49                     50                     51
                      A                      A                      A
 Frequencies --   1345.8476              1384.0297              1398.8991
 Red. masses --      1.3096                 1.4242                 1.2186
 Frc consts  --      1.3976                 1.6073                 1.4050
 IR Inten    --      4.4200                 7.6628                 0.0000

                     52                     53                     54
                      A                      A                      A
 Frequencies --   1399.1558              1419.5560              1420.4190
 Red. masses --      1.2182                 1.2191                 1.2225
 Frc consts  --      1.4051                 1.4475                 1.4532
 IR Inten    --     13.5055                 4.8557                 3.9510

                     55                     56                     57
                      A                      A                      A
 Frequencies --   1472.0884              1487.0247              1487.3358
 Red. masses --      2.3592                 1.0416                 1.0415
 Frc consts  --      3.0122                 1.3571                 1.3575
 IR Inten    --      4.3285                 0.0000                 0.5393

                     58                     59                     60
                      A                      A                      A
 Frequencies --   1490.4434              1490.5522              1502.2824
 Red. masses --      1.0484                 1.0483                 1.0581
 Frc consts  --      1.3721                 1.3722                 1.4069
 IR Inten    --      0.0000                 5.7170                 6.1282

                     61                     62                     63
                      A                      A                      A
 Frequencies --   1502.7227              1506.3941              1510.1750
 Red. masses --      1.0482                 1.1165                 1.0904
 Frc consts  --      1.3946                 1.4927                 1.4652
 IR Inten    --     18.0283                 0.5338                12.5954

                     64                     65                     66
                      A                      A                      A
 Frequencies --   1522.0421              1624.3234              1641.1200
 Red. masses --      2.0208                 5.2397                 5.8757
 Frc consts  --      2.7583                 8.1452                 9.3237
 IR Inten    --     12.1950                 5.5796                23.8723

                     67                     68                     69
                      A                      A                      A
 Frequencies --   3014.0921              3014.3565              3018.5296
 Red. masses --      1.0839                 1.0842                 1.0346
 Frc consts  --      5.8017                 5.8044                 5.5540
 IR Inten    --      0.2814                24.7931                 0.0000

                     70                     71                     72
                      A                      A                      A
 Frequencies --   3018.5750              3022.6183              3022.9482
 Red. masses --      1.0346                 1.0352                 1.0352
 Frc consts  --      5.5542                 5.5726                 5.5734
 IR Inten    --     55.0544                75.0435                 0.0587

                     73                     74                     75
                      A                      A                      A
 Frequencies --   3078.3360              3078.3622              3084.6134
 Red. masses --      1.1020                 1.1020                 1.1011
 Frc consts  --      6.1527                 6.1525                 6.1728
 IR Inten    --      0.0003                 0.0665                60.4384

                     76                     77                     78
                      A                      A                      A
 Frequencies --   3085.0604              3090.3543              3090.5335
 Red. masses --      1.1010                 1.1020                 1.1020
 Frc consts  --      6.1739                 6.2010                 6.2017
 IR Inten    --    104.1181                 0.0021                43.2958

                     79                     80                     81
                      A                      A                      A
 Frequencies --   3092.7603              3092.8960              3140.5334
 Red. masses --      1.1015                 1.1015                 1.0891
 Frc consts  --      6.2075                 6.2081                 6.3288
 IR Inten    --     43.9459                25.1609                19.2970

                     82                     83                     84
                      A                      A                      A
 Frequencies --   3153.7473              3164.6942              3178.8414
 Red. masses --      1.0851                 1.0899                 1.0962
 Frc consts  --      6.3590                 6.4316                 6.5264
 IR Inten    --      1.0069                22.7929                20.5607

 - Thermochemistry -
 -------------------
 Temperature   298.150 Kelvin.  Pressure   1.00000 Atm.
 Atom     1 has atomic number  6 and mass  12.00000

 Molecular mass:   162.14085 amu.
 Principal axes and moments of inertia in atomic units:
                           1         2         3
     Eigenvalues --   993.896373773.803173981.89758
           X            1.00000   0.00000   0.00000
           Y            0.00000   1.00000   0.00000
           Z            0.00000   0.00000   1.00000
 This molecule is an asymmetric top.
 Rotational symmetry number  1.
 Warning -- assumption of classical behavior for rotation
           may cause significant error
 Rotational temperatures (Kelvin)      0.08715     0.02295     0.02175
 Rotational constants (GHZ):           1.81582     0.47823     0.45324
 Zero-point vibrational energy     702994.2 (Joules/Mol)
                                  168.01965 (Kcal/Mol)
 Warning -- explicit consideration of  19 degrees of freedom as
           vibrations may cause significant error
 Vibrational temperatures:     44.16    47.77   178.37   184.44   213.26
          (Kelvin)            324.80   326.45   334.52   350.91   380.94
                              387.68   445.96   480.87   483.31   627.93
                              697.09   698.76   837.61   840.51   935.28
                             1029.40  1041.66  1162.33  1171.45  1275.27
                             1313.39  1323.66  1340.85  1344.02  1353.07
                             1382.85  1382.87  1427.34  1460.20  1537.13
                             1538.76  1609.41  1611.38  1621.49  1682.86
                             1685.42  1722.97  1733.69  1813.47  1865.37
                             1932.40  1935.83  1936.05  1936.37  1991.31
                             2012.70  2013.07  2042.42  2043.66  2118.00
                             2139.49  2139.94  2144.41  2144.57  2161.45
                             2162.08  2167.36  2172.80  2189.88  2337.04
                             2361.20  4336.60  4336.98  4342.99  4343.05
                             4348.87  4349.34  4429.03  4429.07  4438.07
                             4438.71  4446.32  4446.58  4449.79  4449.98
                             4518.52  4537.53  4553.28  4573.64

 Zero-point correction=                           0.267756 (Hartree/Particle)
 Thermal correction to Energy=                    0.280880
 Thermal correction to Enthalpy=                  0.281824
 Thermal correction to Gibbs Free Energy=         0.227929
 Sum of electronic and zero-point Energies=           -467.993456
 Sum of electronic and thermal Energies=              -467.980332
 Sum of electronic and thermal Enthalpies=            -467.979388
 Sum of electronic and thermal Free Energies=         -468.033283

                     E (Thermal)             CV                S
                      KCal/Mol        Cal/Mol-Kelvin    Cal/Mol-Kelvin
 Total                  176.255             49.943            113.431
 Electronic               0.000              0.000              0.000
 Translational            0.889              2.981             41.159
 Rotational               0.889              2.981             31.080
 Vibrational            174.477             43.982             41.192
 Vibration     1          0.594              1.984              5.784
 Vibration     2          0.594              1.983              5.628
 Vibration     3          0.610              1.929              3.037
 Vibration     4          0.611              1.925              2.973
 Vibration     5          0.618              1.905              2.695
 Vibration     6          0.650              1.802              1.913
 Vibration     7          0.651              1.800              1.903
 Vibration     8          0.653              1.791              1.860
 Vibration     9          0.659              1.773              1.774
 Vibration    10          0.671              1.738              1.630
 Vibration    11          0.674              1.729              1.600
 Vibration    12          0.699              1.655              1.363
 Vibration    13          0.716              1.607              1.240
 Vibration    14          0.717              1.604              1.231
 Vibration    15          0.797              1.391              0.838
 Vibration    16          0.841              1.284              0.698
 Vibration    17          0.842              1.282              0.695
 Vibration    18          0.939              1.070              0.481
 Vibration    19          0.941              1.066              0.478

 Optimization completed.
    -- Stationary point found.
 Normal termination of Gaussian 09 at Tue Apr 23 15:12:04 2024.
