 Gaussian 09, Revision D.01,
 Gaussian 09:  ES64L-G09RevD.01 24-Apr-2013

 ----------------------------------------------------------------------
 # opt freq=noraman b3lyp/6-311+g(d,p) pop=(npa,hirshfeld,chelpg,mbs) g
 eom=connectivity
 ----------------------------------------------------------------------

 -------------------
 Title Card Required
 -------------------
 Symbolic Z-matrix:
 Charge =  0 Multiplicity = 1

 SCF Done:  E(RB3LYP) =  -307.551005411     A.U. after   12 cycles
 SCF Done:  E(RB3LYP) =  -307.552925615     A.U. after   11 cycles
 SCF Done:  E(RB3LYP) =  -307.553026589     A.U. after   10 cycles
 SCF Done:  E(RB3LYP) =  -307.553037259     A.U. after    9 cycles
 SCF Done:  E(RB3LYP) =  -307.553037934     A.U. after    8 cycles
 SCF Done:  E(RB3LYP) =  -307.553042930     A.U. after   10 cycles
 SCF Done:  E(RB3LYP) =  -307.531092980     A.U. after   13 cycles
 SCF Done:  E(RB3LYP) =  -307.553045865     A.U. after    7 cycles
 SCF Done:  E(RB3LYP) =  -307.553855857     A.U. after   13 cycles
 SCF Done:  E(RB3LYP) =  -307.512885828     A.U. after   13 cycles
 SCF Done:  E(RB3LYP) =  -307.554246503     A.U. after    9 cycles
 SCF Done:  E(RB3LYP) =  -307.557478310     A.U. after   14 cycles
 SCF Done:  E(RB3LYP) =  -307.558459392     A.U. after   13 cycles
 SCF Done:  E(RB3LYP) =  -307.558549628     A.U. after   11 cycles
 SCF Done:  E(RB3LYP) =  -307.558628721     A.U. after   10 cycles
 SCF Done:  E(RB3LYP) =  -307.558630605     A.U. after    8 cycles
 SCF Done:  E(RB3LYP) =  -307.558630674     A.U. after    7 cycles
 Optimization completed.
    -- Stationary point found.
 Normal termination of Gaussian 09 at Tue Apr 23 11:49:01 2024.

 ----------------------------------------------------------------------
 #N Geom=AllCheck Guess=TCheck SCRF=Check GenChk RB3LYP/6-311+G(d,p) Fr
 eq
 ----------------------------------------------------------------------

 Structure from the checkpoint file:  "26.chk"
 -------------------
 Title Card Required
 -------------------
 Charge =  0 Multiplicity = 1

                         Standard orientation:
 ---------------------------------------------------------------------
 Center     Atomic      Atomic             Coordinates (Angstroms)
 Number     Number       Type             X           Y           Z
 ---------------------------------------------------------------------
      1          6           0        1.855174    0.027200    0.000029
      2          6           0        1.169812   -1.188854    0.000002
      3          6           0       -0.220826   -1.221461   -0.000033
      4          6           0       -0.938078   -0.023970   -0.000007
      5          6           0       -0.262782    1.197708   -0.000019
      6          6           0        1.131300    1.217172   -0.000013
      7          1           0        1.722091   -2.121986   -0.000003
      8          1           0       -0.822776    2.128546   -0.000085
      9          1           0        1.648985    2.169864    0.000000
     10          8           0       -2.305385   -0.110444    0.000024
     11          1           0       -2.687197    0.773383    0.000107
     12          1           0        2.938382    0.045727    0.000085
     13          1           0       -0.764001   -2.158759   -0.000052
 ---------------------------------------------------------------------

 SCF Done:  E(RB3LYP) =  -307.558630674     A.U. after    1 cycles

 The electronic state is 1-A.
 Alpha  occ. eigenvalues --  -19.16096 -10.24227 -10.18339 -10.18139 -10.18126
 Alpha  occ. eigenvalues --  -10.17515 -10.17342  -1.07172  -0.85955  -0.75764
 Alpha  occ. eigenvalues --   -0.74699  -0.63380  -0.61121  -0.55463  -0.50700
 Alpha  occ. eigenvalues --   -0.47536  -0.44718  -0.43231  -0.41864  -0.39929
 Alpha  occ. eigenvalues --   -0.37045  -0.34972  -0.34645  -0.26358  -0.23493
 Alpha virt. eigenvalues --   -0.02101  -0.00591  -0.00497   0.01018   0.02426
 Alpha virt. eigenvalues --    0.03770   0.04784   0.06190   0.06760   0.07644
 Alpha virt. eigenvalues --    0.08676   0.09177   0.09584   0.12973   0.12994

 Mulliken charges:
               1
     1  C   -0.121769
     2  C   -0.207601
     3  C    0.160779
     4  C   -0.248121
     5  C    0.074456
     6  C   -0.242365
     7  H    0.129088
     8  H    0.104105
     9  H    0.127121
    10  O   -0.273743
    11  H    0.245721
    12  H    0.122934
    13  H    0.129396
 Sum of Mulliken charges =   0.00000

 Dipole moment (field-independent basis, Debye):
    X=              0.1007    Y=              1.3813    Z=              0.0001  Tot=              1.3850
 Quadrupole moment (field-independent basis, Debye-Ang):
   XX=            -38.2124   YY=            -36.0205   ZZ=            -45.5897
   XY=             -4.5641   XZ=             -0.0002   YZ=              0.0001

  Exact polarizability:  90.133  -1.129  81.263   0.000   0.000  43.301
 Approx polarizability: 144.118  -0.813 132.672   0.000   0.000  62.884

 ESP charges:
               1
     1  C   -0.179222
     2  C   -0.042775
     3  C   -0.225598
     4  C    0.439363
     5  C   -0.301529
     6  C   -0.008273
     7  H    0.084655
     8  H    0.118153
     9  H    0.083212
    10  O   -0.632776
    11  H    0.420909
    12  H    0.101141
    13  H    0.142739
 Sum of ESP charges =   0.00000

 Summary of Natural Population Analysis:

                                       Natural Population
                Natural  -----------------------------------------------
    Atom  No    Charge         Core      Valence    Rydberg      Total
 -----------------------------------------------------------------------
      C    1   -0.23792      1.99916     4.22007    0.01869     6.23792
      C    2   -0.18342      1.99918     4.16645    0.01779     6.18342
      C    3   -0.25462      1.99906     4.23715    0.01842     6.25462
      C    4    0.31401      1.99878     3.66341    0.02380     5.68599
      C    5   -0.28709      1.99906     4.26988    0.01815     6.28709
      C    6   -0.18452      1.99918     4.16709    0.01825     6.18452
      H    7    0.20666      0.00000     0.79187    0.00147     0.79334
      H    8    0.20179      0.00000     0.79621    0.00200     0.79821
      H    9    0.20645      0.00000     0.79203    0.00152     0.79355
      O   10   -0.67703      1.99975     6.66481    0.01247     8.67703
      H   11    0.46867      0.00000     0.52696    0.00438     0.53133
      H   12    0.20752      0.00000     0.79109    0.00139     0.79248
      H   13    0.21951      0.00000     0.77878    0.00171     0.78049
 =======================================================================
   * Total *    0.00000     13.99416    35.86579    0.14005    50.00000

                      1                      2                      3
                      A                      A                      A
 Frequencies --    227.7865               312.1200               405.1707
 Red. masses --      4.1593                 1.1247                 3.9404
 Frc consts  --      0.1272                 0.0646                 0.3811
 IR Inten    --      1.5697               111.3183                10.4831

                      4                      5                      6
                      A                      A                      A
 Frequencies --    418.4141               511.9898               535.8874
 Red. masses --      2.9428                 2.7367                 7.2853
 Frc consts  --      0.3035                 0.4227                 1.2327
 IR Inten    --      1.1091                14.9832                 2.1287

                      7                      8                      9
                      A                      A                      A
 Frequencies --    632.5793               687.0630               758.9091
 Red. masses --      6.4474                 2.4519                 1.5637
 Frc consts  --      1.5201                 0.6819                 0.5306
 IR Inten    --      0.3771                20.5827                73.9168

                     10                     11                     12
                      A                      A                      A
 Frequencies --    823.3409               827.4552               890.9795
 Red. masses --      1.2526                 5.7891                 1.4290
 Frc consts  --      0.5003                 2.3353                 0.6684
 IR Inten    --      0.0242                22.7999                 5.5582

                     13                     14                     15
                      A                      A                      A
 Frequencies --    968.4023               989.2164              1012.3755
 Red. masses --      1.3440                 1.2638                 6.0923
 Frc consts  --      0.7426                 0.7286                 3.6789
 IR Inten    --      0.0570                 0.0934                 2.3642

                     16                     17                     18
                      A                      A                      A
 Frequencies --   1043.0420              1092.8926              1176.4973
 Red. masses --      2.0716                 1.5546                 1.1696
 Frc consts  --      1.3279                 1.0940                 0.9538
 IR Inten    --      5.7752                14.7078                27.0996

                     19                     20                     21
                      A                      A                      A
 Frequencies --   1190.1714              1191.5906              1274.9929
 Red. masses --      1.1587                 1.2284                 3.5621
 Frc consts  --      0.9670                 1.0277                 3.4117
 IR Inten    --     10.7618               117.4068                91.5489

                     22                     23                     24
                      A                      A                      A
 Frequencies --   1348.6100              1368.0993              1499.2971
 Red. masses --      4.0302                 1.3563                 2.2644
 Frc consts  --      4.3187                 1.4957                 2.9990
 IR Inten    --      5.6984                27.2297                22.8863

                     25                     26                     27
                      A                      A                      A
 Frequencies --   1526.8407              1635.4539              1645.9940
 Red. masses --      2.3404                 5.8116                 5.7338
 Frc consts  --      3.2146                 9.1584                 9.1527
 IR Inten    --     59.7136                48.9677                39.7685

                     28                     29                     30
                      A                      A                      A
 Frequencies --   3148.8910              3167.8635              3176.4596
 Red. masses --      1.0884                 1.0865                 1.0913
 Frc consts  --      6.3585                 6.4239                 6.4873
 IR Inten    --     13.9204                 0.1468                16.7100

                     31                     32                     33
                      A                      A                      A
 Frequencies --   3190.3460              3196.9421              3835.8697
 Red. masses --      1.0936                 1.0969                 1.0662
 Frc consts  --      6.5583                 6.6053                 9.2428
 IR Inten    --     16.5997                 4.3942                61.3626

 - Thermochemistry -
 -------------------
 Temperature   298.150 Kelvin.  Pressure   1.00000 Atm.
 Atom     1 has atomic number  6 and mass  12.00000

 Molecular mass:    94.04186 amu.
 Principal axes and moments of inertia in atomic units:
                           1         2         3
     Eigenvalues --   318.42776 689.362461007.79022
           X            0.99980  -0.02009   0.00000
           Y            0.02009   0.99980   0.00000
           Z            0.00000   0.00000   1.00000
 This molecule is an asymmetric top.
 Rotational symmetry number  1.
 Rotational temperatures (Kelvin)      0.27200     0.12564     0.08594
 Rotational constants (GHZ):           5.66766     2.61799     1.79079
 Zero-point vibrational energy     273415.7 (Joules/Mol)
                                   65.34793 (Kcal/Mol)
 Warning -- explicit consideration of   6 degrees of freedom as
           vibrations may cause significant error
 Vibrational temperatures:    327.73   449.07   582.95   602.00   736.64
          (Kelvin)            771.02   910.14   988.53  1091.90  1184.60
                             1190.52  1281.92  1393.31  1423.26  1456.58
                             1500.70  1572.43  1692.72  1712.39  1714.43
                             1834.43  1940.35  1968.39  2157.15  2196.78
                             2353.05  2368.22  4530.55  4557.84  4570.21
                             4590.19  4599.68  5518.95

 Zero-point correction=                           0.104139 (Hartree/Particle)
 Thermal correction to Energy=                    0.109726
 Thermal correction to Enthalpy=                  0.110670
 Thermal correction to Gibbs Free Energy=         0.075093
 Sum of electronic and zero-point Energies=           -307.454492
 Sum of electronic and thermal Energies=              -307.448905
 Sum of electronic and thermal Enthalpies=            -307.447961
 Sum of electronic and thermal Free Energies=         -307.483538

                     E (Thermal)             CV                S
                      KCal/Mol        Cal/Mol-Kelvin    Cal/Mol-Kelvin
 Total                   68.854             22.031             74.879
 Electronic               0.000              0.000              0.000
 Translational            0.889              2.981             39.535
 Rotational               0.889              2.981             26.895
 Vibrational             67.077             16.070              8.449
 Vibration     1          0.651              1.799              1.896
 Vibration     2          0.700              1.651              1.351
 Vibration     3          0.770              1.459              0.944
 Vibration     4          0.781              1.430              0.897
 Vibration     5          0.867              1.223              0.629
 Vibration     6          0.891              1.171              0.574

 Optimization completed.
    -- Stationary point found.
 Normal termination of Gaussian 09 at Tue Apr 23 11:49:33 2024.
