 Gaussian 09, Revision D.01,
 Gaussian 09:  ES64L-G09RevD.01 24-Apr-2013

 ----------------------------------------------------------------------
 # opt freq b3lyp/6-311+g(d,p) geom=connectivity pop=(hirshfeld,chelpg,
 mbs,npa)
 ----------------------------------------------------------------------

 -------------------
 Title Card Required
 -------------------
 Symbolic Z-matrix:
 Charge =  0 Multiplicity = 1

 SCF Done:  E(RB3LYP) =  -402.224000754     A.U. after   14 cycles
 SCF Done:  E(RB3LYP) =  -402.229725783     A.U. after   12 cycles
 SCF Done:  E(RB3LYP) =  -402.230259700     A.U. after   11 cycles
 SCF Done:  E(RB3LYP) =  -402.230451400     A.U. after   11 cycles
 SCF Done:  E(RB3LYP) =  -402.230748383     A.U. after   11 cycles
 SCF Done:  E(RB3LYP) =  -402.230671190     A.U. after   12 cycles
 SCF Done:  E(RB3LYP) =  -402.230769029     A.U. after    9 cycles
 SCF Done:  E(RB3LYP) =  -402.232050838     A.U. after   12 cycles
 SCF Done:  E(RB3LYP) =  -402.236146009     A.U. after   14 cycles
 SCF Done:  E(RB3LYP) =  -402.238625567     A.U. after   15 cycles
 SCF Done:  E(RB3LYP) =  -402.234039030     A.U. after   13 cycles
 SCF Done:  E(RB3LYP) =  -402.240530715     A.U. after   11 cycles
 SCF Done:  E(RB3LYP) =  -402.242728842     A.U. after   12 cycles
 SCF Done:  E(RB3LYP) =  -402.243800637     A.U. after   13 cycles
 SCF Done:  E(RB3LYP) =  -402.244266927     A.U. after   12 cycles
 SCF Done:  E(RB3LYP) =  -402.244311558     A.U. after   10 cycles
 SCF Done:  E(RB3LYP) =  -402.244320166     A.U. after   11 cycles
 SCF Done:  E(RB3LYP) =  -402.244321964     A.U. after    9 cycles
 SCF Done:  E(RB3LYP) =  -402.244322267     A.U. after    8 cycles
 Optimization completed.
    -- Stationary point found.
 Normal termination of Gaussian 09 at Mon Jan  9 17:55:50 2023.

 ----------------------------------------------------------------------
 #N Geom=AllCheck Guess=TCheck SCRF=Check GenChk RB3LYP/6-311+G(d,p) Fr
 eq
 ----------------------------------------------------------------------

 Structure from the checkpoint file:  "Traceless8_Smith.chk"
 -------------------
 Title Card Required
 -------------------
 Charge =  0 Multiplicity = 1

                         Standard orientation:
 ---------------------------------------------------------------------
 Center     Atomic      Atomic             Coordinates (Angstroms)
 Number     Number       Type             X           Y           Z
 ---------------------------------------------------------------------
      1          6           0        0.772670   -0.208494    0.000968
      2          6           0        0.719075    1.188276   -0.004685
      3          6           0       -0.535302    1.804054   -0.003593
      4          6           0       -1.709597    1.066862    0.003287
      5          6           0       -1.649547   -0.338443    0.007547
      6          6           0       -0.402099   -0.964760    0.006758
      7          1           0       -0.589258    2.887303   -0.008320
      8          1           0       -2.672072    1.566922    0.011415
      9          1           0       -0.320289   -2.045959    0.016135
     10          7           0       -2.822392   -1.095575    0.070859
     11          1           0       -3.654165   -0.638539   -0.272267
     12          1           0       -2.747315   -2.047572   -0.255787
     13          1           0        1.616331    1.790581   -0.010080
     14          8           0        1.931041   -0.934563   -0.000254
     15          6           0        3.168242   -0.237001   -0.003798
     16          1           0        3.941787   -1.003536   -0.002519
     17          1           0        3.275329    0.384157   -0.899725
     18          1           0        3.277420    0.389221    0.888267
 ---------------------------------------------------------------------

 SCF Done:  E(RB3LYP) =  -402.244322267     A.U. after    1 cycles

 The electronic state is 1-A.
 Alpha  occ. eigenvalues --  -19.15194 -14.32154 -10.23249 -10.22408 -10.21583
 Alpha  occ. eigenvalues --  -10.17457 -10.16223 -10.16194 -10.16105  -1.06694
 Alpha  occ. eigenvalues --   -0.92299  -0.83825  -0.75819  -0.72992  -0.69737
 Alpha  occ. eigenvalues --   -0.61452  -0.59548  -0.54025  -0.52086  -0.48871
 Alpha  occ. eigenvalues --   -0.47270  -0.47038  -0.46415  -0.42501  -0.41266
 Alpha  occ. eigenvalues --   -0.39091  -0.37444  -0.36843  -0.34527  -0.33122
 Alpha  occ. eigenvalues --   -0.29969  -0.22816  -0.20970
 Alpha virt. eigenvalues --   -0.00749  -0.00092   0.00662   0.01210   0.02059
 Alpha virt. eigenvalues --    0.03368   0.03488   0.04638   0.04737   0.06452
 Alpha virt. eigenvalues --    0.07158   0.07725   0.08923   0.09073   0.10608

 Mulliken charges:
               1
     1  C   -0.391339
     2  C    0.400458
     3  C   -0.517864
     4  C    0.218367
     5  C   -0.212940
     6  C   -0.041916
     7  H    0.122113
     8  H    0.098533
     9  H    0.101032
    10  N   -0.361925
    11  H    0.224441
    12  H    0.226258
    13  H    0.114396
    14  O   -0.189505
    15  C   -0.234249
    16  H    0.155668
    17  H    0.143634
    18  H    0.144837
 Sum of Mulliken charges =   0.00000

 Dipole moment (field-independent basis, Debye):
    X=             -0.0631    Y=              0.2758    Z=             -0.9552  Tot=              0.9962
 Quadrupole moment (field-independent basis, Debye-Ang):
   XX=            -41.0340   YY=            -50.6429   ZZ=            -58.9374
   XY=              3.4283   XZ=              3.4760   YZ=              1.5039

  Exact polarizability: 130.499   3.413 100.689  -0.111  -0.170  59.920
 Approx polarizability: 187.458   4.651 163.339  -0.756  -0.603  88.490

 ESP charges:
               1
     1  C    0.506173
     2  C   -0.347007
     3  C   -0.007408
     4  C   -0.363588
     5  C    0.503315
     6  C   -0.483779
     7  H    0.087207
     8  H    0.150264
     9  H    0.181630
    10  N   -0.819783
    11  H    0.325035
    12  H    0.335322
    13  H    0.136708
    14  O   -0.447199
    15  C    0.223180
    16  H    0.035182
    17  H   -0.014914
    18  H   -0.000336
 Sum of ESP charges =   0.00000

 Summary of Natural Population Analysis:

                                       Natural Population
                Natural  -----------------------------------------------
    Atom  No    Charge         Core      Valence    Rydberg      Total
 -----------------------------------------------------------------------
      C    1    0.34296      1.99880     3.63499    0.02325     5.65704
      C    2   -0.33495      1.99906     4.31916    0.01673     6.33495
      C    3   -0.16479      1.99919     4.14731    0.01828     6.16479
      C    4   -0.28415      1.99906     4.26720    0.01789     6.28415
      C    5    0.18203      1.99902     3.79980    0.01915     5.81797
      C    6   -0.29902      1.99897     4.28314    0.01691     6.29902
      H    7    0.20350      0.00000     0.79490    0.00161     0.79650
      H    8    0.20174      0.00000     0.79648    0.00178     0.79826
      H    9    0.21180      0.00000     0.78450    0.00369     0.78820
      N   10   -0.79260      1.99943     5.77555    0.01761     7.79260
      H   11    0.37200      0.00000     0.62557    0.00243     0.62800
      H   12    0.37275      0.00000     0.62493    0.00232     0.62725
      H   13    0.21085      0.00000     0.78734    0.00181     0.78915
      O   14   -0.54458      1.99971     6.52754    0.01733     8.54458
      C   15   -0.20654      1.99926     4.19154    0.01574     6.20654
      H   16    0.18996      0.00000     0.80894    0.00110     0.81004
      H   17    0.16926      0.00000     0.82834    0.00240     0.83074
      H   18    0.16977      0.00000     0.82783    0.00239     0.83023
 =======================================================================
   * Total *    0.00000     17.99250    47.82507    0.18244    66.00000

                      1                      2                      3
                      A                      A                      A
 Frequencies --     82.7652               199.0278               223.5013
 Red. masses --      3.1528                 1.5778                 3.9391
 Frc consts  --      0.0127                 0.0368                 0.1159
 IR Inten    --      6.8765                 0.4761                 4.5175

                      4                      5                      6
                      A                      A                      A
 Frequencies --    232.9541               262.8013               297.3235
 Red. masses --      3.2011                 1.7819                 1.0502
 Frc consts  --      0.1024                 0.0725                 0.0547
 IR Inten    --      4.3159                 0.8731                17.3874

                      7                      8                      9
                      A                      A                      A
 Frequencies --    355.7055               459.3619               466.1649
 Red. masses --      3.3691                 2.7684                 4.1389
 Frc consts  --      0.2512                 0.3442                 0.5299
 IR Inten    --      0.6039                18.8081                 4.1161

                     10                     11                     12
                      A                      A                      A
 Frequencies --    530.5354               560.8395               585.6805
 Red. masses --      5.4562                 1.3871                 4.5507
 Frc consts  --      0.9048                 0.2571                 0.9197
 IR Inten    --     36.4475               246.2623                10.6927

                     13                     14                     15
                      A                      A                      A
 Frequencies --    635.2312               689.2440               746.8133
 Red. masses --      3.8503                 1.9164                 5.7537
 Frc consts  --      0.9154                 0.5364                 1.8907
 IR Inten    --     27.1212                20.4636                 6.0437

                     16                     17                     18
                      A                      A                      A
 Frequencies --    759.5737               839.6038               852.2754
 Red. masses --      1.4943                 1.4921                 1.6640
 Frc consts  --      0.5080                 0.6197                 0.7122
 IR Inten    --     46.8670                 1.5725                37.3421

                     19                     20                     21
                      A                      A                      A
 Frequencies --    938.1606               962.6804              1004.2963
 Red. masses --      3.6273                 1.2778                 5.7924
 Frc consts  --      1.8810                 0.6977                 3.4421
 IR Inten    --      9.0052                 0.0354                 2.8185

                     22                     23                     24
                      A                      A                      A
 Frequencies --   1062.6663              1095.5124              1130.6985
 Red. masses --      2.6755                 1.6870                 1.3041
 Frc consts  --      1.7801                 1.1929                 0.9823
 IR Inten    --     34.2911                12.5128                 0.9282

                     25                     26                     27
                      A                      A                      A
 Frequencies --   1169.1516              1181.5810              1196.6058
 Red. masses --      1.2727                 1.3911                 1.3276
 Frc consts  --      1.0250                 1.1443                 1.1200
 IR Inten    --      0.7170               145.1952                 4.4669

                     28                     29                     30
                      A                      A                      A
 Frequencies --   1226.8837              1316.4091              1333.4453
 Red. masses --      1.9629                 2.7078                 1.8688
 Frc consts  --      1.7408                 2.7647                 1.9578
 IR Inten    --    147.6609                53.7978                 8.1361

                     31                     32                     33
                      A                      A                      A
 Frequencies --   1361.9704              1473.2814              1491.5123
 Red. masses --      4.2967                 1.2152                 1.0459
 Frc consts  --      4.6960                 1.5540                 1.3708
 IR Inten    --     38.7444                11.8420                 8.9260

                     34                     35                     36
                      A                      A                      A
 Frequencies --   1497.0913              1508.4832              1525.3934
 Red. masses --      1.9498                 1.2918                 2.4607
 Frc consts  --      2.5748                 1.7319                 3.3734
 IR Inten    --     24.6674                19.3240               105.1456

                     37                     38                     39
                      A                      A                      A
 Frequencies --   1620.9102              1649.4840              1664.4087
 Red. masses --      5.8362                 2.5577                 1.5512
 Frc consts  --      9.0343                 4.1001                 2.5319
 IR Inten    --     70.3697                96.2559               237.1972

                     40                     41                     42
                      A                      A                      A
 Frequencies --   3004.2216              3062.3461              3130.5236
 Red. masses --      1.0344                 1.1061                 1.0991
 Frc consts  --      5.5006                 6.1116                 6.3464
 IR Inten    --     56.3746                39.6245                23.8601

                     43                     44                     45
                      A                      A                      A
 Frequencies --   3160.3116              3175.5645              3177.8719
 Red. masses --      1.0865                 1.0910                 1.0932
 Frc consts  --      6.3934                 6.4823                 6.5049
 IR Inten    --      7.9552                15.3302                10.6636

                     46                     47                     48
                      A                      A                      A
 Frequencies --   3212.7678              3570.0817              3667.6616
 Red. masses --      1.0918                 1.0474                 1.0991
 Frc consts  --      6.6397                 7.8651                 8.7111
 IR Inten    --      5.2396                19.5488                16.1275

 - Thermochemistry -
 -------------------
 Temperature   298.150 Kelvin.  Pressure   1.00000 Atm.
 Atom     1 has atomic number  6 and mass  12.00000

 Molecular mass:   123.06841 amu.
 Principal axes and moments of inertia in atomic units:
                           1         2         3
     Eigenvalues --   500.666101601.972252089.68579
           X            0.99990   0.01349   0.00360
           Y           -0.01351   0.99990   0.00474
           Z           -0.00354  -0.00479   0.99998
 This molecule is an asymmetric top.
 Rotational symmetry number  1.
 Warning -- assumption of classical behavior for rotation
           may cause significant error
 Rotational temperatures (Kelvin)      0.17300     0.05407     0.04145
 Rotational constants (GHZ):           3.60468     1.12657     0.86364
 Zero-point vibrational energy     390888.0 (Joules/Mol)
                                   93.42449 (Kcal/Mol)
 Warning -- explicit consideration of  12 degrees of freedom as
           vibrations may cause significant error
 Vibrational temperatures:    119.08   286.36   321.57   335.17   378.11
          (Kelvin)            427.78   511.78   660.92   670.71   763.32
                              806.92   842.66   913.95   991.67  1074.50
                             1092.86  1208.00  1226.23  1349.80  1385.08
                             1444.96  1528.94  1576.20  1626.82  1682.15
                             1700.03  1721.65  1765.21  1894.02  1918.53
                             1959.57  2119.72  2145.95  2153.98  2170.37
                             2194.70  2332.13  2373.24  2394.71  4322.40
                             4406.03  4504.12  4546.98  4568.92  4572.24
                             4622.45  5136.54  5276.94

 Zero-point correction=                           0.148881 (Hartree/Particle)
 Thermal correction to Energy=                    0.157297
 Thermal correction to Enthalpy=                  0.158241
 Thermal correction to Gibbs Free Energy=         0.116097
 Sum of electronic and zero-point Energies=           -402.095441
 Sum of electronic and thermal Energies=              -402.087026
 Sum of electronic and thermal Enthalpies=            -402.086081
 Sum of electronic and thermal Free Energies=         -402.128225

                     E (Thermal)             CV                S
                      KCal/Mol        Cal/Mol-Kelvin    Cal/Mol-Kelvin
 Total                   98.705             32.633             88.699
 Electronic               0.000              0.000              0.000
 Translational            0.889              2.981             40.337
 Rotational               0.889              2.981             28.907
 Vibrational             96.928             26.671             19.455
 Vibration     1          0.600              1.961              3.824
 Vibration     2          0.637              1.841              2.142
 Vibration     3          0.649              1.805              1.931
 Vibration     4          0.654              1.791              1.856
 Vibration     5          0.670              1.741              1.643
 Vibration     6          0.691              1.679              1.432
 Vibration     7          0.731              1.564              1.141
 Vibration     8          0.817              1.340              0.768
 Vibration     9          0.824              1.325              0.748
 Vibration    10          0.885              1.182              0.586
 Vibration    11          0.916              1.116              0.522
 Vibration    12          0.943              1.062              0.475

 Optimization completed.
    -- Stationary point found.
 Normal termination of Gaussian 09 at Mon Jan  9 17:57:42 2023.
