 Gaussian 09, Revision D.01,
 Gaussian 09:  ES64L-G09RevD.01 24-Apr-2013

 ---------------------------------------------------------------------
 # b3lyp/6-311+g(d,p) geom=connectivity pop=(hirshfeld,chelpg,mbs,npa)
 ---------------------------------------------------------------------

 --------
 Chart5_3
 --------
 Symbolic Z-matrix:
 Charge =  0 Multiplicity = 1

                         Standard orientation:
 ---------------------------------------------------------------------
 Center     Atomic      Atomic             Coordinates (Angstroms)
 Number     Number       Type             X           Y           Z
 ---------------------------------------------------------------------
      1          6           0        0.000000    1.223547   -0.270088
      2          6           0        0.003992    1.208411    1.128288
      3          6           0        0.000000    0.000000    1.821053
      4          6           0       -0.003992   -1.208411    1.128288
      5          6           0        0.000000   -1.223547   -0.270088
      6          6           0        0.000000    0.000000   -0.947367
      7          1           0        0.008133    2.145361    1.676107
      8          1           0        0.000000    0.000000    2.905765
      9          1           0       -0.008133   -2.145361    1.676107
     10          1           0        0.000000    0.000000   -2.034180
     11          6           0        0.035968   -2.527440   -1.031481
     12          1           0       -0.452812   -2.435937   -2.004406
     13          1           0        1.068039   -2.847712   -1.212563
     14          1           0       -0.460905   -3.326610   -0.476302
     15          6           0       -0.035968    2.527440   -1.031481
     16          1           0        0.452812    2.435937   -2.004406
     17          1           0       -1.068039    2.847712   -1.212563
     18          1           0        0.460905    3.326610   -0.476302
 ---------------------------------------------------------------------

 SCF Done:  E(RB3LYP) =  -310.966252543     A.U. after   12 cycles

 The electronic state is 1-A.
 Alpha  occ. eigenvalues --  -10.18222 -10.18222 -10.17240 -10.16787 -10.16783
 Alpha  occ. eigenvalues --  -10.16775 -10.16775 -10.16739  -0.86035  -0.78318
 Alpha  occ. eigenvalues --   -0.75999  -0.69321  -0.68166  -0.59896  -0.57291
 Alpha  occ. eigenvalues --   -0.50511  -0.47186  -0.44706  -0.42672  -0.41591
 Alpha  occ. eigenvalues --   -0.41342  -0.40614  -0.39845  -0.37742  -0.34724
 Alpha  occ. eigenvalues --   -0.34087  -0.33867  -0.24876  -0.24102
 Alpha virt. eigenvalues --   -0.01343  -0.01081   0.00371   0.01761   0.01926
 Alpha virt. eigenvalues --    0.03834   0.03918   0.04198   0.05730   0.06179
 Alpha virt. eigenvalues --    0.06433   0.07154   0.08072   0.08294   0.10025

 Mulliken charges:
               1
     1  C    0.849067
     2  C   -0.538534
     3  C   -0.029412
     4  C   -0.538534
     5  C    0.849067
     6  C   -0.833067
     7  H    0.115632
     8  H    0.121998
     9  H    0.115632
    10  H    0.108751
    11  C   -0.554784
    12  H    0.138768
    13  H    0.166237
    14  H    0.139479
    15  C   -0.554784
    16  H    0.138768
    17  H    0.166237
    18  H    0.139479
 Sum of Mulliken charges =   0.00000

 Dipole moment (field-independent basis, Debye):
    X=              0.0000    Y=              0.0000    Z=             -0.3791  Tot=              0.3791
 Quadrupole moment (field-independent basis, Debye-Ang):
   XX=            -52.8449   YY=            -44.9303   ZZ=            -46.0453
   XY=             -0.1804   XZ=              0.0000   YZ=              0.0000

 ESP charges:
               1
     1  C    0.233035
     2  C   -0.232686
     3  C   -0.043607
     4  C   -0.232686
     5  C    0.233035
     6  C   -0.337291
     7  H    0.112288
     8  H    0.085395
     9  H    0.112288
    10  H    0.140911
    11  C   -0.207703
    12  H    0.056606
    13  H    0.057894
    14  H    0.057863
    15  C   -0.207703
    16  H    0.056606
    17  H    0.057894
    18  H    0.057863
 Sum of ESP charges =   0.00000

 Summary of Natural Population Analysis:

                                       Natural Population
                Natural  -----------------------------------------------
    Atom  No    Charge         Core      Valence    Rydberg      Total
 -----------------------------------------------------------------------
      C    1   -0.02481      1.99905     4.00995    0.01582     6.02481
      C    2   -0.21612      1.99905     4.20011    0.01696     6.21612
      C    3   -0.18875      1.99916     4.17100    0.01859     6.18875
      C    4   -0.21612      1.99905     4.20011    0.01696     6.21612
      C    5   -0.02481      1.99905     4.00995    0.01582     6.02481
      C    6   -0.20932      1.99895     4.19463    0.01574     6.20932
      H    7    0.20171      0.00000     0.79667    0.00162     0.79829
      H    8    0.20345      0.00000     0.79486    0.00169     0.79655
      H    9    0.20171      0.00000     0.79667    0.00162     0.79829
      H   10    0.19833      0.00000     0.79985    0.00181     0.80167
      C   11   -0.58879      1.99931     4.57958    0.00989     6.58879
      H   12    0.20654      0.00000     0.79212    0.00134     0.79346
      H   13    0.21248      0.00000     0.78611    0.00141     0.78752
      H   14    0.20712      0.00000     0.79156    0.00132     0.79288
      C   15   -0.58879      1.99931     4.57958    0.00989     6.58879
      H   16    0.20654      0.00000     0.79212    0.00134     0.79346
      H   17    0.21248      0.00000     0.78611    0.00141     0.78752
      H   18    0.20712      0.00000     0.79156    0.00132     0.79288
 =======================================================================
   * Total *    0.00000     15.99291    41.87254    0.13455    58.00000

 Normal termination of Gaussian 09 at Fri Jul 23 17:25:51 2021.
