 Gaussian 09, Revision D.01,
 Gaussian 09:  ES64L-G09RevD.01 24-Apr-2013

 ----------------------------------------------------------------------
 # opt freq=noraman b3lyp/6-311+g(d,p) pop=(npa,hirshfeld,chelpg,mbs) g
 eom=connectivity
 ----------------------------------------------------------------------

 -------------------
 Title Card Required
 -------------------
 Symbolic Z-matrix:
 Charge =  0 Multiplicity = 1

 SCF Done:  E(RB3LYP) =  -461.228592327     A.U. after   14 cycles
 SCF Done:  E(RB3LYP) =  -461.231498843     A.U. after   12 cycles
 SCF Done:  E(RB3LYP) =  -461.232418952     A.U. after   12 cycles
 SCF Done:  E(RB3LYP) =  -461.199046169     A.U. after   15 cycles
 SCF Done:  E(RB3LYP) =  -461.233718090     A.U. after   13 cycles
 SCF Done:  E(RB3LYP) =  -461.235015821     A.U. after   14 cycles
 SCF Done:  E(RB3LYP) =  -461.235389918     A.U. after   11 cycles
 SCF Done:  E(RB3LYP) =  -461.235711258     A.U. after   11 cycles
 SCF Done:  E(RB3LYP) =  -461.235724170     A.U. after   10 cycles
 SCF Done:  E(RB3LYP) =  -461.235725369     A.U. after    8 cycles
 SCF Done:  E(RB3LYP) =  -461.235725453     A.U. after    7 cycles
 Optimization completed.
    -- Stationary point found.
 Normal termination of Gaussian 09 at Tue Apr 23 11:48:54 2024.

 ----------------------------------------------------------------------
 #N Geom=AllCheck Guess=TCheck SCRF=Check GenChk RB3LYP/6-311+G(d,p) Fr
 eq
 ----------------------------------------------------------------------

 Structure from the checkpoint file:  "24.chk"
 -------------------
 Title Card Required
 -------------------
 Charge =  0 Multiplicity = 1

                         Standard orientation:
 ---------------------------------------------------------------------
 Center     Atomic      Atomic             Coordinates (Angstroms)
 Number     Number       Type             X           Y           Z
 ---------------------------------------------------------------------
      1          6           0       -1.875572    1.164446    0.000041
      2          6           0       -0.593640    1.657057   -0.000022
      3          6           0        0.526060    0.786977   -0.000018
      4          6           0        0.291021   -0.625655   -0.000028
      5          6           0       -1.039764   -1.110252    0.000007
      6          6           0       -2.099880   -0.234202    0.000068
      7          1           0        2.031164    2.338822   -0.000009
      8          1           0       -2.723483    1.843617    0.000042
      9          1           0       -0.427682    2.729192   -0.000056
     10          6           0        1.861628    1.266836   -0.000003
     11          6           0        1.412397   -1.499042   -0.000016
     12          1           0       -1.232021   -2.176930   -0.000006
     13          6           0        2.693405   -1.001769    0.000012
     14          6           0        2.923752    0.394956    0.000010
     15          1           0        1.240585   -2.570282   -0.000026
     16          1           0        3.537570   -1.682437    0.000026
     17          1           0        3.940008    0.772139    0.000017
     18          8           0       -3.368709   -0.751702    0.000000
     19          1           0       -4.012919   -0.036621   -0.000289
 ---------------------------------------------------------------------

 SCF Done:  E(RB3LYP) =  -461.235725453     A.U. after    1 cycles

 The electronic state is 1-A.
 Alpha  occ. eigenvalues --  -19.16235 -10.24379 -10.19127 -10.18819 -10.18727
 Alpha  occ. eigenvalues --  -10.18686 -10.18004 -10.17893 -10.17734 -10.17649
 Alpha  occ. eigenvalues --  -10.17379  -1.07310  -0.88129  -0.82764  -0.78188
 Alpha  occ. eigenvalues --   -0.74635  -0.72958  -0.63843  -0.62999  -0.60577
 Alpha  occ. eigenvalues --   -0.56268  -0.52387  -0.51035  -0.48040  -0.45686
 Alpha  occ. eigenvalues --   -0.43668  -0.43394  -0.42319  -0.42281  -0.40441
 Alpha  occ. eigenvalues --   -0.38215  -0.37192  -0.35653  -0.33972  -0.31966
 Alpha  occ. eigenvalues --   -0.29062  -0.24512  -0.21745
 Alpha virt. eigenvalues --   -0.05075  -0.01782  -0.00796   0.00560   0.00678
 Alpha virt. eigenvalues --    0.01436   0.02641   0.03655   0.05176   0.05341
 Alpha virt. eigenvalues --    0.05514   0.06355   0.06840   0.07285   0.08822

 Mulliken charges:
               1
     1  C   -0.085955
     2  C   -0.005596
     3  C    0.041885
     4  C    0.241032
     5  C   -0.090018
     6  C   -0.326118
     7  H    0.117027
     8  H    0.106572
     9  H    0.121635
    10  C   -0.010929
    11  C   -0.017030
    12  H    0.121013
    13  C   -0.281171
    14  C   -0.292681
    15  H    0.119120
    16  H    0.125531
    17  H    0.124175
    18  O   -0.252059
    19  H    0.243565
 Sum of Mulliken charges =   0.00000

 Dipole moment (field-independent basis, Debye):
    X=             -0.4936    Y=              1.5176    Z=             -0.0005  Tot=              1.5958
 Quadrupole moment (field-independent basis, Debye-Ang):
   XX=            -54.4833   YY=            -58.6748   ZZ=            -69.9126
   XY=             -6.1322   XZ=              0.0021   YZ=             -0.0002

  Exact polarizability: 181.966  -6.037 124.222   0.000   0.000  63.424
 Approx polarizability: 301.906  -9.615 217.549  -0.002   0.000  97.782

 ESP charges:
               1
     1  C   -0.277318
     2  C   -0.172118
     3  C    0.123833
     4  C    0.185842
     5  C   -0.396101
     6  C    0.461894
     7  H    0.106365
     8  H    0.127145
     9  H    0.129039
    10  C   -0.196371
    11  C   -0.200804
    12  H    0.193460
    13  C   -0.055825
    14  C   -0.088642
    15  H    0.102082
    16  H    0.081161
    17  H    0.087469
    18  O   -0.625442
    19  H    0.414333
 Sum of ESP charges =   0.00000

 Summary of Natural Population Analysis:

                                       Natural Population
                Natural  -----------------------------------------------
    Atom  No    Charge         Core      Valence    Rydberg      Total
 -----------------------------------------------------------------------
      C    1   -0.26857      1.99906     4.25207    0.01744     6.26857
      C    2   -0.15640      1.99910     4.14038    0.01692     6.15640
      C    3   -0.07969      1.99898     4.06493    0.01578     6.07969
      C    4   -0.03980      1.99900     4.02542    0.01538     6.03980
      C    5   -0.24121      1.99898     4.22476    0.01747     6.24121
      C    6    0.31389      1.99878     3.66334    0.02400     5.68611
      H    7    0.20383      0.00000     0.79452    0.00165     0.79617
      H    8    0.20276      0.00000     0.79520    0.00204     0.79724
      H    9    0.20495      0.00000     0.79209    0.00295     0.79505
      C   10   -0.17134      1.99909     4.15520    0.01706     6.17134
      C   11   -0.18642      1.99909     4.16977    0.01757     6.18642
      H   12    0.21888      0.00000     0.77904    0.00208     0.78112
      C   13   -0.19681      1.99916     4.17942    0.01823     6.19681
      C   14   -0.21593      1.99916     4.19821    0.01856     6.21593
      H   15    0.20554      0.00000     0.79266    0.00179     0.79446
      H   16    0.20619      0.00000     0.79237    0.00144     0.79381
      H   17    0.20651      0.00000     0.79202    0.00147     0.79349
      O   18   -0.67487      1.99975     6.66247    0.01264     8.67487
      H   19    0.46849      0.00000     0.52714    0.00438     0.53151
 =======================================================================
   * Total *    0.00000     21.99014    53.80100    0.20886    76.00000

                      1                      2                      3
                      A                      A                      A
 Frequencies --    121.9514               180.0267               258.8486
 Red. masses --      5.4890                 3.6669                 1.1433
 Frc consts  --      0.0481                 0.0700                 0.0451
 IR Inten    --      0.5486                 2.1014               109.4514

                      4                      5                      6
                      A                      A                      A
 Frequencies --    289.9993               295.6375               406.5980
 Red. masses --      4.9112                 4.0921                 3.2474
 Frc consts  --      0.2433                 0.2107                 0.3163
 IR Inten    --      4.5256                 1.1545                 1.4024

                      7                      8                      9
                      A                      A                      A
 Frequencies --    428.0878               468.0253               479.2454
 Red. masses --      5.8718                 4.7164                 2.5034
 Frc consts  --      0.6340                 0.6087                 0.3388
 IR Inten    --      5.2703                 0.6012                17.4078

                     10                     11                     12
                      A                      A                      A
 Frequencies --    532.6198               540.3668               634.3767
 Red. masses --      6.1763                 3.4186                 3.0486
 Frc consts  --      1.0323                 0.5881                 0.7228
 IR Inten    --      0.0780                 0.1681                 1.1603

                     13                     14                     15
                      A                      A                      A
 Frequencies --    636.0655               725.3416               756.2227
 Red. masses --      6.6871                 6.4646                 1.4326
 Frc consts  --      1.5940                 2.0039                 0.4827
 IR Inten    --      7.7286                 7.5528                21.8888

                     16                     17                     18
                      A                      A                      A
 Frequencies --    759.9014               778.6578               808.6751
 Red. masses --      2.6482                 4.6996                 1.4619
 Frc consts  --      0.9010                 1.6788                 0.5633
 IR Inten    --     11.3216                 0.1677                47.4995

                     19                     20                     21
                      A                      A                      A
 Frequencies --    859.0848               885.9247               915.0746
 Red. masses --      1.3950                 1.5849                 4.9079
 Frc consts  --      0.6066                 0.7329                 2.4213
 IR Inten    --     25.8919                13.6078                22.2996

                     22                     23                     24
                      A                      A                      A
 Frequencies --    948.7339               972.1499               973.9585
 Red. masses --      1.2854                 1.3726                 3.8202
 Frc consts  --      0.6817                 0.7643                 2.1351
 IR Inten    --      0.5104                 3.7698                20.2312

                     25                     26                     27
                      A                      A                      A
 Frequencies --    995.0514              1039.6936              1145.4823
 Red. masses --      1.2870                 2.3084                 1.6985
 Frc consts  --      0.7508                 1.4702                 1.3131
 IR Inten    --      0.0346                 2.8363                21.7279

                     28                     29                     30
                      A                      A                      A
 Frequencies --   1166.3433              1176.1211              1187.0045
 Red. masses --      1.3219                 1.2183                 1.2381
 Frc consts  --      1.0595                 0.9929                 1.0278
 IR Inten    --     16.5251                20.5706                77.0370

                     31                     32                     33
                      A                      A                      A
 Frequencies --   1213.1420              1245.7925              1282.3981
 Red. masses --      1.3621                 2.4043                 1.8728
 Frc consts  --      1.1811                 2.1986                 1.8146
 IR Inten    --     31.1464                39.3825                25.5991

                     34                     35                     36
                      A                      A                      A
 Frequencies --   1295.8624              1394.5193              1403.8668
 Red. masses --      2.3219                 5.2820                 2.5685
 Frc consts  --      2.2973                 6.0519                 2.9825
 IR Inten    --    127.5383                 3.9375                19.1491

                     37                     38                     39
                      A                      A                      A
 Frequencies --   1409.6741              1480.5809              1503.6082
 Red. masses --      2.3464                 2.3356                 2.5005
 Frc consts  --      2.7472                 3.0166                 3.3307
 IR Inten    --      2.4854                26.5844                16.6780

                     40                     41                     42
                      A                      A                      A
 Frequencies --   1548.4844              1612.7581              1647.6778
 Red. masses --      3.4992                 6.8286                 5.2903
 Frc consts  --      4.9435                10.4646                 8.4620
 IR Inten    --     68.4433                14.0173                11.7335

                     43                     44                     45
                      A                      A                      A
 Frequencies --   1675.3091              3147.9413              3157.7507
 Red. masses --      6.2297                 1.0877                 1.0858
 Frc consts  --     10.3017                 6.3504                 6.3788
 IR Inten    --     91.1787                12.0276                 3.0955

                     46                     47                     48
                      A                      A                      A
 Frequencies --   3162.7216              3173.1455              3175.8950
 Red. masses --      1.0881                 1.0937                 1.0935
 Frc consts  --      6.4128                 6.4884                 6.4986
 IR Inten    --      0.3196                 8.7729                31.9869

                     49                     50                     51
                      A                      A                      A
 Frequencies --   3184.4529              3188.4634              3840.3512
 Red. masses --      1.0911                 1.0970                 1.0663
 Frc consts  --      6.5193                 6.5708                 9.2656
 IR Inten    --      9.6403                17.1027                86.0317

 - Thermochemistry -
 -------------------
 Temperature   298.150 Kelvin.  Pressure   1.00000 Atm.
 Atom     1 has atomic number  6 and mass  12.00000

 Molecular mass:   144.05751 amu.
 Principal axes and moments of inertia in atomic units:
                           1         2         3
     Eigenvalues --   632.978202188.123372821.10157
           X            0.99994  -0.01065   0.00000
           Y            0.01065   0.99994   0.00000
           Z            0.00000   0.00000   1.00000
 This molecule is an asymmetric top.
 Rotational symmetry number  1.
 Warning -- assumption of classical behavior for rotation
           may cause significant error
 Rotational temperatures (Kelvin)      0.13684     0.03958     0.03070
 Rotational constants (GHZ):           2.85119     0.82479     0.63973
 Zero-point vibrational energy     395423.6 (Joules/Mol)
                                   94.50851 (Kcal/Mol)
 Warning -- explicit consideration of  11 degrees of freedom as
           vibrations may cause significant error
 Vibrational temperatures:    175.46   259.02   372.42   417.24   425.36
          (Kelvin)            585.00   615.92   673.38   689.53   766.32
                              777.47   912.73   915.16  1043.60  1088.03
                             1093.33  1120.31  1163.50  1236.03  1274.65
                             1316.59  1365.01  1398.71  1401.31  1431.66
                             1495.89  1648.09  1678.11  1692.17  1707.83
                             1745.44  1792.42  1845.08  1864.45  2006.40
                             2019.85  2028.20  2130.22  2163.35  2227.92
                             2320.40  2370.64  2410.39  4529.18  4543.29
                             4550.45  4565.44  4569.40  4581.71  4587.48
                             5525.40

 Zero-point correction=                           0.150609 (Hartree/Particle)
 Thermal correction to Energy=                    0.158802
 Thermal correction to Enthalpy=                  0.159746
 Thermal correction to Gibbs Free Energy=         0.117799
 Sum of electronic and zero-point Energies=           -461.085117
 Sum of electronic and thermal Energies=              -461.076924
 Sum of electronic and thermal Enthalpies=            -461.075979
 Sum of electronic and thermal Free Energies=         -461.117927

                     E (Thermal)             CV                S
                      KCal/Mol        Cal/Mol-Kelvin    Cal/Mol-Kelvin
 Total                   99.650             33.949             88.286
 Electronic               0.000              0.000              0.000
 Translational            0.889              2.981             40.806
 Rotational               0.889              2.981             29.748
 Vibrational             97.872             27.987             17.732
 Vibration     1          0.609              1.931              3.069
 Vibration     2          0.629              1.867              2.328
 Vibration     3          0.668              1.748              1.670
 Vibration     4          0.686              1.692              1.474
 Vibration     5          0.690              1.682              1.441
 Vibration     6          0.771              1.456              0.939
 Vibration     7          0.790              1.409              0.865
 Vibration     8          0.825              1.321              0.743
 Vibration     9          0.836              1.296              0.712
 Vibration    10          0.888              1.178              0.581
 Vibration    11          0.895              1.161              0.564

 Optimization completed.
    -- Stationary point found.
 Normal termination of Gaussian 09 at Tue Apr 23 11:51:36 2024.
