 Gaussian 09, Revision D.01,
 Gaussian 09:  ES64L-G09RevD.01 24-Apr-2013

 ----------------------------------------------------------------------
 # opt freq b3lyp/6-311+g(d,p) geom=connectivity pop=(hirshfeld,chelpg,
 mbs,npa)
 ----------------------------------------------------------------------

 -------------------
 Title Card Required
 -------------------
 Symbolic Z-matrix:
 Charge =  0 Multiplicity = 1

 SCF Done:  E(RB3LYP) =  -327.163929230     A.U. after   12 cycles
 SCF Done:  E(RB3LYP) =  -327.179756337     A.U. after   11 cycles
 SCF Done:  E(RB3LYP) =  -327.183245189     A.U. after   10 cycles
 SCF Done:  E(RB3LYP) =  -327.183634196     A.U. after   10 cycles
 SCF Done:  E(RB3LYP) =  -327.183723493     A.U. after    9 cycles
 SCF Done:  E(RB3LYP) =  -327.183940779     A.U. after   10 cycles
 SCF Done:  E(RB3LYP) =  -325.194265727     A.U. after   15 cycles
 SCF Done:  E(RB3LYP) =  -327.115333480     A.U. after   12 cycles
 SCF Done:  E(RB3LYP) =  -327.181997344     A.U. after   10 cycles
 SCF Done:  E(RB3LYP) =  -327.184144167     A.U. after    9 cycles
 SCF Done:  E(RB3LYP) =  -327.185199939     A.U. after   10 cycles
 SCF Done:  E(RB3LYP) =  -327.185588112     A.U. after   10 cycles
 SCF Done:  E(RB3LYP) =  -327.186034883     A.U. after   10 cycles
 SCF Done:  E(RB3LYP) =  -327.186146361     A.U. after    9 cycles
 SCF Done:  E(RB3LYP) =  -327.186276257     A.U. after    9 cycles
 SCF Done:  E(RB3LYP) =  -327.186389134     A.U. after   10 cycles
 SCF Done:  E(RB3LYP) =  -327.186445062     A.U. after    9 cycles
 SCF Done:  E(RB3LYP) =  -327.186466866     A.U. after    9 cycles
 SCF Done:  E(RB3LYP) =  -327.186467201     A.U. after    7 cycles
 Optimization completed.
    -- Stationary point found.
 Normal termination of Gaussian 09 at Tue Nov  2 15:48:12 2021.

 ----------------------------------------------------------------------
 #N Geom=AllCheck Guess=TCheck SCRF=Check GenChk RB3LYP/6-311+G(d,p) Fr
 eq
 ----------------------------------------------------------------------

 Structure from the checkpoint file:  "Table1_1.chk"
 -------------------
 Title Card Required
 -------------------
 Charge =  0 Multiplicity = 1

                         Standard orientation:
 ---------------------------------------------------------------------
 Center     Atomic      Atomic             Coordinates (Angstroms)
 Number     Number       Type             X           Y           Z
 ---------------------------------------------------------------------
      1          6           0        0.473676    2.309184    0.000000
      2          1           0        1.018076    2.648284    0.885166
      3          1           0        1.018076    2.648284   -0.885166
      4          1           0       -0.519845    2.797408    0.000000
      5          6           0       -0.251105    0.339161    1.197834
      6          1           0       -1.290894    0.713030    1.286572
      7          1           0        0.296021    0.705788    2.070255
      8          6           0       -0.251105   -1.215706    1.174154
      9          1           0       -1.280179   -1.595374    1.262495
     10          1           0        0.329768   -1.619390    2.003823
     11          6           0       -0.251105   -1.215706   -1.174154
     12          1           0        0.329768   -1.619390   -2.003823
     13          1           0       -1.280179   -1.595374   -1.262495
     14          6           0       -0.251105    0.339161   -1.197834
     15          1           0        0.296021    0.705788   -2.070255
     16          1           0       -1.290894    0.713030   -1.286572
     17          8           0        0.350529   -1.732116    0.000000
     18          7           0        0.393501    0.859754    0.000000
 ---------------------------------------------------------------------

 SCF Done:  E(RB3LYP) =  -327.186467201     A.U. after    1 cycles

 The electronic state is 1-A'.
 Alpha  occ. eigenvalues --  -19.12424 -14.31036 -10.21813 -10.21812 -10.19790
 Alpha  occ. eigenvalues --  -10.19788 -10.19098  -1.04246  -0.92873  -0.77114
 Alpha  occ. eigenvalues --   -0.72783  -0.66142  -0.64584  -0.54743  -0.51088
 Alpha  occ. eigenvalues --   -0.49958  -0.49665  -0.44736  -0.43152  -0.42513
 Alpha  occ. eigenvalues --   -0.39658  -0.39398  -0.39113  -0.36609  -0.33895
 Alpha  occ. eigenvalues --   -0.31725  -0.25975  -0.22006
 Alpha virt. eigenvalues --    0.00288   0.01736   0.02180   0.02695   0.03261
 Alpha virt. eigenvalues --    0.04556   0.04631   0.05134   0.05882   0.07953
 Alpha virt. eigenvalues --    0.08290   0.09114   0.09494   0.09978   0.10394

 Mulliken charges:
               1
     1  C   -0.247973
     2  H    0.129291
     3  H    0.129291
     4  H    0.118685
     5  C   -0.260836
     6  H    0.122867
     7  H    0.141623
     8  C   -0.270834
     9  H    0.130280
    10  H    0.153415
    11  C   -0.270834
    12  H    0.153415
    13  H    0.130280
    14  C   -0.260836
    15  H    0.141623
    16  H    0.122867
    17  O   -0.174151
    18  N    0.011826
 Sum of Mulliken charges =   0.00000

 Dipole moment (field-independent basis, Debye):
    X=             -1.3465    Y=              1.2876    Z=              0.0000  Tot=              1.8630
 Quadrupole moment (field-independent basis, Debye-Ang):
   XX=            -46.9674   YY=            -47.2173   ZZ=            -40.2980
   XY=              2.5852   XZ=              0.0000   YZ=              0.0000

  Exact polarizability:  65.719   2.028  76.702   0.000   0.000  74.948
 Approx polarizability:  98.443  -1.079  94.160   0.000   0.000 100.218

 ESP charges:
               1
     1  C   -0.121326
     2  H    0.083988
     3  H    0.083988
     4  H    0.042697
     5  C    0.178128
     6  H   -0.028624
     7  H    0.019329
     8  C    0.154548
     9  H    0.009397
    10  H    0.034632
    11  C    0.154548
    12  H    0.034632
    13  H    0.009397
    14  C    0.178128
    15  H    0.019329
    16  H   -0.028624
    17  O   -0.429410
    18  N   -0.394758
 Sum of ESP charges =   0.00000

 Summary of Natural Population Analysis:

                                       Natural Population
                Natural  -----------------------------------------------
    Atom  No    Charge         Core      Valence    Rydberg      Total
 -----------------------------------------------------------------------
      C    1   -0.35187      1.99935     4.33856    0.01396     6.35187
      H    2    0.19362      0.00000     0.80475    0.00163     0.80638
      H    3    0.19362      0.00000     0.80475    0.00163     0.80638
      H    4    0.15957      0.00000     0.83688    0.00355     0.84043
      C    5   -0.19936      1.99929     4.18254    0.01753     6.19936
      H    6    0.15874      0.00000     0.83773    0.00354     0.84126
      H    7    0.19565      0.00000     0.80248    0.00187     0.80435
      C    8   -0.02920      1.99924     4.00769    0.02226     6.02920
      H    9    0.15432      0.00000     0.84276    0.00293     0.84568
      H   10    0.18705      0.00000     0.81136    0.00159     0.81295
      C   11   -0.02920      1.99924     4.00769    0.02226     6.02920
      H   12    0.18705      0.00000     0.81136    0.00159     0.81295
      H   13    0.15432      0.00000     0.84276    0.00293     0.84568
      C   14   -0.19936      1.99929     4.18254    0.01753     6.19936
      H   15    0.19565      0.00000     0.80248    0.00187     0.80435
      H   16    0.15874      0.00000     0.83773    0.00354     0.84126
      O   17   -0.57781      1.99978     6.55716    0.02087     8.57781
      N   18   -0.55153      1.99941     5.51934    0.03277     7.55153
 =======================================================================
   * Total *    0.00000     13.99559    41.83056    0.17385    56.00000

 ******    1 imaginary frequencies (negative Signs) ******

                      1                      2                      3
                     A"                     A'                     A'
 Frequencies --   -121.2215               158.6429               223.2709
 Red. masses --      1.7295                 2.1507                 2.2828
 Frc consts  --      0.0150                 0.0319                 0.0670
 IR Inten    --      0.1941                 0.9775                 5.2883

                      4                      5                      6
                     A"                     A'                     A"
 Frequencies --    252.2246               348.2657               363.4206
 Red. masses --      1.0741                 2.3432                 2.2751
 Frc consts  --      0.0403                 0.1674                 0.1770
 IR Inten    --      0.3785                 9.8551                 0.0149

                      7                      8                      9
                     A'                     A"                     A'
 Frequencies --    440.7029               548.5792               694.8693
 Red. masses --      5.0609                 5.2677                 4.2195
 Frc consts  --      0.5791                 0.9340                 1.2004
 IR Inten    --      2.9735                 0.7291                14.5028

                     10                     11                     12
                     A'                     A"                     A'
 Frequencies --    841.4111               845.6857               867.2392
 Red. masses --      3.1765                 1.1735                 1.4573
 Frc consts  --      1.3250                 0.4945                 0.6458
 IR Inten    --     23.7547                 0.6760                10.5248

                     13                     14                     15
                     A"                     A'                     A'
 Frequencies --    930.1600               968.4428              1023.6550
 Red. masses --      2.8390                 3.8590                 3.3914
 Frc consts  --      1.4472                 2.1324                 2.0938
 IR Inten    --      8.8001                 1.1115                48.0185

                     16                     17                     18
                     A"                     A"                     A'
 Frequencies --   1076.3897              1095.3342              1123.8813
 Red. masses --      1.8833                 1.5787                 1.7079
 Frc consts  --      1.2856                 1.1159                 1.2710
 IR Inten    --      1.4111                 6.7683                22.9528

                     19                     20                     21
                     A"                     A'                     A'
 Frequencies --   1143.3949              1161.3354              1203.8331
 Red. masses --      6.9493                 1.7858                 2.1782
 Frc consts  --      5.3528                 1.4191                 1.8598
 IR Inten    --    113.7434                13.2783                15.4279

                     22                     23                     24
                     A"                     A"                     A"
 Frequencies --   1239.3139              1268.8384              1281.2643
 Red. masses --      1.2977                 1.1951                 1.7578
 Frc consts  --      1.1743                 1.1336                 1.7001
 IR Inten    --      3.7686                18.1329                 2.7537

                     25                     26                     27
                     A'                     A'                     A"
 Frequencies --   1308.3555              1335.3058              1367.5762
 Red. masses --      1.2170                 1.2157                 1.2953
 Frc consts  --      1.2274                 1.2771                 1.4274
 IR Inten    --      5.2649                10.9954                 0.5570

                     28                     29                     30
                     A"                     A'                     A'
 Frequencies --   1391.8337              1403.0433              1415.5504
 Red. masses --      1.2943                 1.5005                 1.3285
 Frc consts  --      1.4772                 1.7403                 1.5684
 IR Inten    --      0.3945                 1.8986                15.0678

                     31                     32                     33
                     A'                     A'                     A"
 Frequencies --   1458.0675              1484.9855              1494.8513
 Red. masses --      1.1950                 1.0463                 1.0743
 Frc consts  --      1.4968                 1.3594                 1.4144
 IR Inten    --      0.1120                17.4448                 2.3503

                     34                     35                     36
                     A'                     A"                     A"
 Frequencies --   1503.4644              1503.8041              1512.0504
 Red. masses --      1.1006                 1.0706                 1.0623
 Frc consts  --      1.4658                 1.4264                 1.4310
 IR Inten    --      3.8007                 1.3876                 3.2276

                     37                     38                     39
                     A'                     A"                     A'
 Frequencies --   1521.2385              2868.9390              2874.9980
 Red. masses --      1.0944                 1.0753                 1.0724
 Frc consts  --      1.4922                 5.2147                 5.2226
 IR Inten    --      7.1962                38.2800                80.8214

                     40                     41                     42
                     A'                     A"                     A'
 Frequencies --   2903.2327              2966.3670              2970.8369
 Red. masses --      1.0634                 1.0732                 1.0728
 Frc consts  --      5.2811                 5.5638                 5.5784
 IR Inten    --    160.5799                46.1656               149.2057

                     43                     44                     45
                     A'                     A"                     A'
 Frequencies --   3049.5762              3053.6468              3055.5524
 Red. masses --      1.0689                 1.0856                 1.0852
 Frc consts  --      5.8567                 5.9643                 5.9697
 IR Inten    --     24.8372                24.7723                31.8479

                     46                     47                     48
                     A"                     A"                     A'
 Frequencies --   3093.1823              3096.9355              3099.0205
 Red. masses --      1.1035                 1.0912                 1.0926
 Frc consts  --      6.2205                 6.1662                 6.1822
 IR Inten    --     23.2228                58.6785                25.4644

 - Thermochemistry -
 -------------------
 Temperature   298.150 Kelvin.  Pressure   1.00000 Atm.
 Atom     1 has atomic number  6 and mass  12.00000

 Molecular mass:   101.08406 amu.
 Principal axes and moments of inertia in atomic units:
                           1         2         3
     Eigenvalues --   391.19165 764.378141033.00207
           X            0.10696   0.00000   0.99426
           Y            0.99426   0.00000  -0.10696
           Z            0.00000   1.00000   0.00000
 This molecule is an asymmetric top.
 Rotational symmetry number  1.
 Rotational temperatures (Kelvin)      0.22141     0.11331     0.08385
 Rotational constants (GHZ):           4.61345     2.36106     1.74708
    1 imaginary frequencies ignored.
 Zero-point vibrational energy     423672.8 (Joules/Mol)
                                  101.26024 (Kcal/Mol)
 Warning -- explicit consideration of   7 degrees of freedom as
           vibrations may cause significant error
 Vibrational temperatures:    228.25   321.24   362.89   501.08   522.88
          (Kelvin)            634.07   789.28   999.76  1210.60  1216.75
                             1247.76  1338.29  1393.37  1472.81  1548.68
                             1575.94  1617.01  1645.09  1670.90  1732.05
                             1783.09  1825.57  1843.45  1882.43  1921.20
                             1967.63  2002.54  2018.66  2036.66  2097.83
                             2136.56  2150.75  2163.15  2163.64  2175.50
                             2188.72  4127.76  4136.48  4177.10  4267.94
                             4274.37  4387.65  4393.51  4396.25  4450.39
                             4455.79  4458.79

 Zero-point correction=                           0.161368 (Hartree/Particle)
 Thermal correction to Energy=                    0.167701
 Thermal correction to Enthalpy=                  0.168645
 Thermal correction to Gibbs Free Energy=         0.131294
 Sum of electronic and zero-point Energies=           -327.025099
 Sum of electronic and thermal Energies=              -327.018767
 Sum of electronic and thermal Enthalpies=            -327.017822
 Sum of electronic and thermal Free Energies=         -327.055174

                     E (Thermal)             CV                S
                      KCal/Mol        Cal/Mol-Kelvin    Cal/Mol-Kelvin
 Total                  105.234             24.111             78.612
 Electronic               0.000              0.000              0.000
 Translational            0.889              2.981             39.750
 Rotational               0.889              2.981             27.226
 Vibrational            103.456             18.149             11.635
 Vibration     1          0.621              1.893              2.566
 Vibration     2          0.649              1.806              1.932
 Vibration     3          0.664              1.759              1.715
 Vibration     4          0.726              1.579              1.174
 Vibration     5          0.737              1.548              1.107
 Vibration     6          0.801              1.381              0.824
 Vibration     7          0.904              1.143              0.547

 Optimization completed.
    -- Stationary point found.
 Normal termination of Gaussian 09 at Tue Nov  2 15:49:14 2021.
