 Gaussian 09, Revision D.01,
 Gaussian 09:  ES64L-G09RevD.01 24-Apr-2013

 ----------------------------------------------------------------------
 # opt freq b3lyp/6-311+g(d,p) geom=connectivity pop=(hirshfeld,chelpg,
 mbs,npa)
 ----------------------------------------------------------------------

 --------
 Table4_3
 --------
 Symbolic Z-matrix:
 Charge =  0 Multiplicity = 1

 SCF Done:  E(RB3LYP) =  -797.382608706     A.U. after   15 cycles
 SCF Done:  E(RB3LYP) =  -797.402180169     A.U. after   13 cycles
 SCF Done:  E(RB3LYP) =  -797.405701665     A.U. after   14 cycles
 SCF Done:  E(RB3LYP) =  -797.403538978     A.U. after   13 cycles
 SCF Done:  E(RB3LYP) =  -797.405827852     A.U. after    9 cycles
 SCF Done:  E(RB3LYP) =  -797.405709979     A.U. after   12 cycles
 SCF Done:  E(RB3LYP) =  -797.406007853     A.U. after    9 cycles
 SCF Done:  E(RB3LYP) =  -797.406044301     A.U. after   11 cycles
 SCF Done:  E(RB3LYP) =  -797.406069996     A.U. after   11 cycles
 SCF Done:  E(RB3LYP) =  -797.406087222     A.U. after   11 cycles
 SCF Done:  E(RB3LYP) =  -797.406092743     A.U. after   10 cycles
 SCF Done:  E(RB3LYP) =  -797.406093468     A.U. after   10 cycles
 SCF Done:  E(RB3LYP) =  -797.406093645     A.U. after    9 cycles
 SCF Done:  E(RB3LYP) =  -797.406093946     A.U. after   10 cycles
 SCF Done:  E(RB3LYP) =  -797.406094278     A.U. after   11 cycles
 SCF Done:  E(RB3LYP) =  -797.406094512     A.U. after   10 cycles
 SCF Done:  E(RB3LYP) =  -797.406094588     A.U. after    9 cycles
 Optimization completed.
    -- Stationary point found.
 Normal termination of Gaussian 09 at Wed Nov 17 15:20:13 2021.

 ----------------------------------------------------------------------
 #N Geom=AllCheck Guess=TCheck SCRF=Check GenChk RB3LYP/6-311+G(d,p) Fr
 eq
 ----------------------------------------------------------------------

 Structure from the checkpoint file:  "Table4_3.chk"
 --------
 Table4_3
 --------
 Charge =  0 Multiplicity = 1

                         Standard orientation:
 ---------------------------------------------------------------------
 Center     Atomic      Atomic             Coordinates (Angstroms)
 Number     Number       Type             X           Y           Z
 ---------------------------------------------------------------------
      1          6           0       -1.479555    0.000248   -0.037196
      2          6           0       -0.702458   -1.157974   -0.031129
      3          6           0        0.684712   -1.059342   -0.018885
      4          6           0        1.297496    0.197401   -0.009004
      5          6           0        0.511449    1.354138   -0.013818
      6          6           0       -0.873849    1.258468   -0.026861
      7          1           0       -1.178940   -2.129731   -0.043871
      8          1           0        1.293989   -1.952954   -0.018607
      9          1           0        1.001646    2.319413   -0.009226
     10          1           0       -1.481855    2.154359   -0.036551
     11          6           0        2.782930    0.361520    0.002661
     12          8           0        3.348715    1.429938    0.010817
     13          8           0        3.430019   -0.820781    0.003287
     14          6           0       -2.981922   -0.102086    0.002016
     15          9           0       -3.578903    0.895439   -0.687745
     16          9           0       -3.453816   -0.030590    1.272442
     17          9           0       -3.430134   -1.267961   -0.512813
     18          6           0        4.868926   -0.751350    0.014834
     19          1           0        5.207901   -1.784700    0.011754
     20          1           0        5.230266   -0.223936   -0.868698
     21          1           0        5.216433   -0.233834    0.909703
 ---------------------------------------------------------------------

 SCF Done:  E(RB3LYP) =  -797.406094588     A.U. after    1 cycles

 The electronic state is 1-A.
 Alpha  occ. eigenvalues --  -24.72374 -24.72276 -24.71883 -19.18712 -19.12803
 Alpha  occ. eigenvalues --  -10.44147 -10.32102 -10.23967 -10.22702 -10.21850
 Alpha  occ. eigenvalues --  -10.21177 -10.21139 -10.20970 -10.20769  -1.32838
 Alpha  occ. eigenvalues --   -1.24211  -1.23715  -1.12792  -1.03991  -0.90172
 Alpha  occ. eigenvalues --   -0.82198  -0.78535  -0.75759  -0.72033  -0.66121
 Alpha  occ. eigenvalues --   -0.64923  -0.60635  -0.60325  -0.59667  -0.58770
 Alpha  occ. eigenvalues --   -0.55346  -0.50634  -0.50334  -0.49051  -0.48506
 Alpha  occ. eigenvalues --   -0.47787  -0.47279  -0.46882  -0.46059  -0.44817
 Alpha  occ. eigenvalues --   -0.43897  -0.42981  -0.42854  -0.42479  -0.39346
 Alpha  occ. eigenvalues --   -0.39004  -0.38556  -0.37456  -0.32818  -0.30203
 Alpha  occ. eigenvalues --   -0.29331  -0.28992
 Alpha virt. eigenvalues --   -0.08282  -0.04405  -0.00494   0.00749   0.01469
 Alpha virt. eigenvalues --    0.01846   0.02546   0.03444   0.03714   0.04071
 Alpha virt. eigenvalues --    0.04982   0.05254   0.05993   0.07332   0.07447

 Mulliken charges:
               1
     1  C   -0.554976
     2  C   -0.394479
     3  C   -0.351009
     4  C    0.314441
     5  C   -0.168605
     6  C   -0.225421
     7  H    0.147191
     8  H    0.150390
     9  H    0.157275
    10  H    0.149674
    11  C    0.143952
    12  O   -0.280063
    13  O   -0.140768
    14  C    1.010062
    15  F   -0.105290
    16  F   -0.070774
    17  F   -0.117901
    18  C   -0.144522
    19  H    0.155795
    20  H    0.162445
    21  H    0.162584
 Sum of Mulliken charges =   0.00000

 Dipole moment (field-independent basis, Debye):
    X=              2.6035    Y=             -1.6241    Z=             -0.0935  Tot=              3.0700
 Quadrupole moment (field-independent basis, Debye-Ang):
   XX=            -80.2798   YY=            -77.1100   ZZ=            -81.4597
   XY=             -9.1864   XZ=              0.2613   YZ=             -0.0246

  Exact polarizability: 157.773  -0.717 113.017   0.274   0.095  68.799
 Approx polarizability: 207.225   4.646 195.904   0.782   0.295 103.603

 ESP charges:
               1
     1  C   -0.063764
     2  C   -0.063886
     3  C   -0.055196
     4  C   -0.113134
     5  C   -0.011017
     6  C   -0.097943
     7  H    0.108448
     8  H    0.074839
     9  H    0.083480
    10  H    0.115524
    11  C    0.691501
    12  O   -0.523496
    13  O   -0.342970
    14  C    0.683165
    15  F   -0.235946
    16  F   -0.243716
    17  F   -0.235714
    18  C    0.007676
    19  H    0.077677
    20  H    0.071743
    21  H    0.072729
 Sum of ESP charges =   0.00000

 Summary of Natural Population Analysis:

                                       Natural Population
                Natural  -----------------------------------------------
    Atom  No    Charge         Core      Valence    Rydberg      Total
 -----------------------------------------------------------------------
      C    1   -0.12598      1.99889     4.10919    0.01790     6.12598
      C    2   -0.18009      1.99908     4.16397    0.01704     6.18009
      C    3   -0.15744      1.99910     4.14184    0.01651     6.15744
      C    4   -0.13870      1.99891     4.12115    0.01864     6.13870
      C    5   -0.15100      1.99909     4.13467    0.01723     6.15100
      C    6   -0.17817      1.99908     4.16196    0.01713     6.17817
      H    7    0.22834      0.00000     0.77001    0.00165     0.77166
      H    8    0.23169      0.00000     0.76676    0.00155     0.76831
      H    9    0.23700      0.00000     0.76139    0.00162     0.76300
      H   10    0.22795      0.00000     0.77043    0.00163     0.77205
      C   11    0.79585      1.99929     3.15767    0.04719     5.20415
      O   12   -0.59192      1.99975     6.58087    0.01130     8.59192
      O   13   -0.55126      1.99972     6.53725    0.01428     8.55126
      C   14    1.06675      1.99911     2.87401    0.06013     4.93325
      F   15   -0.35534      1.99992     7.34891    0.00651     9.35534
      F   16   -0.35536      1.99992     7.34903    0.00641     9.35536
      F   17   -0.35571      1.99992     7.34934    0.00645     9.35571
      C   18   -0.21329      1.99925     4.19828    0.01576     6.21329
      H   19    0.18838      0.00000     0.81050    0.00112     0.81162
      H   20    0.18917      0.00000     0.80906    0.00177     0.81083
      H   21    0.18913      0.00000     0.80910    0.00177     0.81087
 =======================================================================
   * Total *    0.00000     27.99102    75.72539    0.28359   104.00000

                      1                      2                      3
                      A                      A                      A
 Frequencies --     15.0216                50.6456                63.9882
 Red. masses --      8.7849                 4.6246                 6.1930
 Frc consts  --      0.0012                 0.0070                 0.0149
 IR Inten    --      0.3611                 0.4061                 1.2077

                      4                      5                      6
                      A                      A                      A
 Frequencies --    115.6175               125.1599               147.4746
 Red. masses --      5.8398                 1.6348                 1.9466
 Frc consts  --      0.0460                 0.0151                 0.0249
 IR Inten    --      0.4472                 2.4732                 1.1499

                      7                      8                      9
                      A                      A                      A
 Frequencies --    205.8260               219.0620               250.2135
 Red. masses --      6.5814                 6.8436                 9.9682
 Frc consts  --      0.1643                 0.1935                 0.3677
 IR Inten    --      3.4685                 3.0728                 1.2442

                     10                     11                     12
                      A                      A                      A
 Frequencies --    320.9618               367.7958               394.9666
 Red. masses --      4.8449                 7.0536                 8.9857
 Frc consts  --      0.2941                 0.5622                 0.8259
 IR Inten    --     18.0732                 0.4427                 1.4156

                     13                     14                     15
                      A                      A                      A
 Frequencies --    415.2477               450.4407               491.5502
 Red. masses --      2.9381                 6.1570                 6.1690
 Frc consts  --      0.2985                 0.7360                 0.8782
 IR Inten    --      0.0247                 3.1711                 0.9370

                     16                     17                     18
                      A                      A                      A
 Frequencies --    498.0761               572.9294               590.2634
 Red. masses --      7.9310                11.2343                 5.1443
 Frc consts  --      1.1592                 2.1727                 1.0560
 IR Inten    --     13.3773                 0.2145                 4.8126

                     19                     20                     21
                      A                      A                      A
 Frequencies --    646.8207               693.3613               715.0035
 Red. masses --      7.1390                 9.6270                 3.6107
 Frc consts  --      1.7598                 2.7268                 1.0876
 IR Inten    --      0.2502                 5.1075                26.0274

                     22                     23                     24
                      A                      A                      A
 Frequencies --    771.4080               792.2897               840.3693
 Red. masses --      8.5602                 4.1857                 5.5184
 Frc consts  --      3.0013                 1.5481                 2.2961
 IR Inten    --      3.0557                32.8742                12.6367

                     25                     26                     27
                      A                      A                      A
 Frequencies --    862.5115               884.3422               981.9423
 Red. masses --      1.2560                 1.8958                 7.5815
 Frc consts  --      0.5505                 0.8735                 4.3070
 IR Inten    --      0.7714                36.3612                10.6666

                     28                     29                     30
                      A                      A                      A
 Frequencies --    993.8357              1007.8261              1033.5410
 Red. masses --      1.3436                 1.3656                 3.7735
 Frc consts  --      0.7819                 0.8172                 2.3749
 IR Inten    --      0.3237                 0.1174                78.2493

                     31                     32                     33
                      A                      A                      A
 Frequencies --   1074.8910              1109.3085              1116.1550
 Red. masses --      4.0319                11.7423                 2.3992
 Frc consts  --      2.7447                 8.5135                 1.7610
 IR Inten    --    102.9183               276.7829               188.5388

                     34                     35                     36
                      A                      A                      A
 Frequencies --   1132.0047              1160.6782              1170.9924
 Red. masses --      3.7722                 2.4875                 1.2792
 Frc consts  --      2.8480                 1.9744                 1.0335
 IR Inten    --    112.0834               111.3822                 0.7883

                     37                     38                     39
                      A                      A                      A
 Frequencies --   1204.8859              1212.6904              1287.3736
 Red. masses --      1.1564                 1.5938                 4.3133
 Frc consts  --      0.9891                 1.3809                 4.2118
 IR Inten    --     24.0139                46.9495               634.4228

                     40                     41                     42
                      A                      A                      A
 Frequencies --   1319.0571              1333.9519              1345.7213
 Red. masses --      6.7618                 1.3435                 8.3839
 Frc consts  --      6.9317                 1.4085                 8.9456
 IR Inten    --    196.2699                 0.8689                 7.7268

                     43                     44                     45
                      A                      A                      A
 Frequencies --   1436.7785              1471.3471              1483.6609
 Red. masses --      2.9705                 1.1986                 1.0444
 Frc consts  --      3.6130                 1.5288                 1.3545
 IR Inten    --     30.6255                19.3251                10.4617

                     46                     47                     48
                      A                      A                      A
 Frequencies --   1497.3382              1541.6480              1616.5723
 Red. masses --      1.0477                 2.5106                 7.1650
 Frc consts  --      1.3839                 3.5156                11.0320
 IR Inten    --     10.4692                 9.6342                 7.7007

                     49                     50                     51
                      A                      A                      A
 Frequencies --   1656.9564              1772.6599              3053.3604
 Red. masses --      5.8094                11.6763                 1.0294
 Frc consts  --      9.3973                21.6175                 5.6546
 IR Inten    --      0.2162               278.2982                33.8598

                     52                     53                     54
                      A                      A                      A
 Frequencies --   3127.6506              3160.0033              3194.5307
 Red. masses --      1.1072                 1.1066                 1.0889
 Frc consts  --      6.3815                 6.5105                 6.5474
 IR Inten    --     16.5563                12.5026                 0.2651

                     55                     56                     57
                      A                      A                      A
 Frequencies --   3200.0400              3209.0005              3217.1265
 Red. masses --      1.0892                 1.0946                 1.0942
 Frc consts  --      6.5717                 6.6411                 6.6725
 IR Inten    --      0.3309                 1.2088                 0.5829

 - Thermochemistry -
 -------------------
 Temperature   298.150 Kelvin.  Pressure   1.00000 Atm.
 Atom     1 has atomic number  6 and mass  12.00000

 Molecular mass:   204.03981 amu.
 Principal axes and moments of inertia in atomic units:
                           1         2         3
     Eigenvalues --   845.843086240.148656754.66716
           X            0.99996  -0.00920   0.00030
           Y            0.00920   0.99996  -0.00006
           Z           -0.00030   0.00006   1.00000
 This molecule is an asymmetric top.
 Rotational symmetry number  1.
 Warning -- assumption of classical behavior for rotation
           may cause significant error
 Rotational temperatures (Kelvin)      0.10240     0.01388     0.01282
 Rotational constants (GHZ):           2.13366     0.28921     0.26718
 Zero-point vibrational energy     386542.6 (Joules/Mol)
                                   92.38590 (Kcal/Mol)
 Warning -- explicit consideration of  18 degrees of freedom as
           vibrations may cause significant error
 Vibrational temperatures:     21.61    72.87    92.06   166.35   180.08
          (Kelvin)            212.18   296.14   315.18   360.00   461.79
                              529.18   568.27   597.45   648.08   707.23
                              716.62   824.32   849.26   930.63   997.59
                             1028.73  1109.88  1139.93  1209.10  1240.96
                             1272.37  1412.79  1429.91  1450.04  1487.03
                             1546.53  1596.05  1605.90  1628.70  1669.96
                             1684.79  1733.56  1744.79  1852.24  1897.83
                             1919.26  1936.19  2067.20  2116.94  2134.65
                             2154.33  2218.08  2325.88  2383.99  2550.46
                             4393.10  4499.99  4546.53  4596.21  4604.14
                             4617.03  4628.72

 Zero-point correction=                           0.147226 (Hartree/Particle)
 Thermal correction to Energy=                    0.159725
 Thermal correction to Enthalpy=                  0.160669
 Thermal correction to Gibbs Free Energy=         0.106005
 Sum of electronic and zero-point Energies=           -797.258868
 Sum of electronic and thermal Energies=              -797.246370
 Sum of electronic and thermal Enthalpies=            -797.245426
 Sum of electronic and thermal Free Energies=         -797.300089

                     E (Thermal)             CV                S
                      KCal/Mol        Cal/Mol-Kelvin    Cal/Mol-Kelvin
 Total                  100.229             45.300            115.050
 Electronic               0.000              0.000              0.000
 Translational            0.889              2.981             41.844
 Rotational               0.889              2.981             31.945
 Vibrational             98.451             39.338             41.261
 Vibration     1          0.593              1.986              7.203
 Vibration     2          0.595              1.977              4.792
 Vibration     3          0.597              1.971              4.330
 Vibration     4          0.608              1.936              3.172
 Vibration     5          0.610              1.928              3.019
 Vibration     6          0.617              1.905              2.705
 Vibration     7          0.640              1.832              2.080
 Vibration     8          0.647              1.812              1.967
 Vibration     9          0.663              1.762              1.729
 Vibration    10          0.706              1.633              1.305
 Vibration    11          0.740              1.538              1.089
 Vibration    12          0.762              1.481              0.981
 Vibration    13          0.779              1.437              0.908
 Vibration    14          0.809              1.360              0.794
 Vibration    15          0.847              1.269              0.680
 Vibration    16          0.854              1.254              0.663
 Vibration    17          0.929              1.090              0.499
 Vibration    18          0.948              1.053              0.467

 Optimization completed.
    -- Stationary point found.
 Normal termination of Gaussian 09 at Wed Nov 17 15:30:33 2021.
