 Gaussian 09, Revision D.01,
 Gaussian 09:  ES64L-G09RevD.01 24-Apr-2013

 ----------------------------------------------------------------------
 # opt freq=noraman b3lyp/6-311+g(d,p) pop=(npa,hirshfeld,chelpg,mbs) g
 eom=connectivity
 ----------------------------------------------------------------------

 -------------------
 Title Card Required
 -------------------
 Symbolic Z-matrix:
 Charge =  0 Multiplicity = 1

 SCF Done:  E(RB3LYP) =  -406.818380721     A.U. after   12 cycles
 SCF Done:  E(RB3LYP) =  -406.820642430     A.U. after   12 cycles
 SCF Done:  E(RB3LYP) =  -406.820945595     A.U. after   11 cycles
 SCF Done:  E(RB3LYP) =  -406.821640426     A.U. after   12 cycles
 SCF Done:  E(RB3LYP) =  -406.822301797     A.U. after   13 cycles
 SCF Done:  E(RB3LYP) =  -406.822950574     A.U. after   10 cycles
 SCF Done:  E(RB3LYP) =  -406.824644134     A.U. after   11 cycles
 SCF Done:  E(RB3LYP) =  -406.825219883     A.U. after   11 cycles
 SCF Done:  E(RB3LYP) =  -406.825329077     A.U. after   10 cycles
 SCF Done:  E(RB3LYP) =  -406.825340741     A.U. after    9 cycles
 SCF Done:  E(RB3LYP) =  -406.825342099     A.U. after    9 cycles
 SCF Done:  E(RB3LYP) =  -406.825342317     A.U. after    7 cycles
 Optimization completed.
    -- Stationary point found.
 Normal termination of Gaussian 09 at Tue Apr 23 11:58:40 2024.

 ----------------------------------------------------------------------
 #N Geom=AllCheck Guess=TCheck SCRF=Check GenChk RB3LYP/6-311+G(d,p) Fr
 eq
 ----------------------------------------------------------------------

 Structure from the checkpoint file:  "34.chk"
 -------------------
 Title Card Required
 -------------------
 Charge =  0 Multiplicity = 1

                         Standard orientation:
 ---------------------------------------------------------------------
 Center     Atomic      Atomic             Coordinates (Angstroms)
 Number     Number       Type             X           Y           Z
 ---------------------------------------------------------------------
      1          6           0       -0.672268    1.220319    0.000041
      2          6           0        0.718678    1.209896   -0.000030
      3          6           0        1.383243   -0.007528   -0.000002
      4          6           0        0.702418   -1.212275    0.000045
      5          6           0       -0.692352   -1.197061    0.000000
      6          6           0       -1.380210    0.017029    0.000035
      7          1           0       -1.221022    2.153873    0.000104
      8          1           0        1.253250   -2.144453    0.000036
      9          1           0        1.286274    2.132101   -0.000047
     10          1           0       -1.239348   -2.134833   -0.000064
     11          8           0       -2.748652    0.094423   -0.000033
     12          1           0       -3.127266   -0.790554   -0.000094
     13          9           0        2.742253   -0.017088   -0.000022
 ---------------------------------------------------------------------

 SCF Done:  E(RB3LYP) =  -406.825342317     A.U. after    1 cycles

 The electronic state is 1-A.
 Alpha  occ. eigenvalues --  -24.68884 -19.16707 -10.26121 -10.25002 -10.19547
 Alpha  occ. eigenvalues --  -10.19472 -10.19323 -10.18948  -1.22646  -1.07800
 Alpha  occ. eigenvalues --   -0.87474  -0.77435  -0.75562  -0.65256  -0.62745
 Alpha  occ. eigenvalues --   -0.56806  -0.55136  -0.51174  -0.47114  -0.46681
 Alpha  occ. eigenvalues --   -0.44938  -0.44176  -0.42367  -0.41855  -0.38700
 Alpha  occ. eigenvalues --   -0.36081  -0.34661  -0.27727  -0.23692
 Alpha virt. eigenvalues --   -0.03431  -0.01015  -0.00793   0.01274   0.02098
 Alpha virt. eigenvalues --    0.03162   0.04911   0.06055   0.06492   0.07587
 Alpha virt. eigenvalues --    0.08152   0.08610   0.09624   0.11682   0.12987

 Mulliken charges:
               1
     1  C    0.130598
     2  C    0.007539
     3  C   -0.200320
     4  C   -0.016476
     5  C    0.055610
     6  C   -0.267991
     7  H    0.138164
     8  H    0.138679
     9  H    0.140452
    10  H    0.113044
    11  O   -0.279379
    12  H    0.246901
    13  F   -0.206821
 Sum of Mulliken charges =   0.00000

 Dipole moment (field-independent basis, Debye):
    X=             -1.6555    Y=             -1.3672    Z=             -0.0001  Tot=              2.1471
 Quadrupole moment (field-independent basis, Debye-Ang):
   XX=            -49.2435   YY=            -38.4091   ZZ=            -48.8779
   XY=              5.2355   XZ=              0.0003   YZ=              0.0004

  Exact polarizability:  90.778   1.071  80.674   0.000   0.000  41.894
 Approx polarizability: 145.128   0.615 132.818  -0.001   0.000  61.033

 ESP charges:
               1
     1  C   -0.197170
     2  C   -0.223744
     3  C    0.340857
     4  C   -0.175818
     5  C   -0.278676
     6  C    0.397527
     7  H    0.159800
     8  H    0.148052
     9  H    0.156541
    10  H    0.137306
    11  O   -0.620897
    12  H    0.420487
    13  F   -0.264263
 Sum of ESP charges =   0.00000

 Summary of Natural Population Analysis:

                                       Natural Population
                Natural  -----------------------------------------------
    Atom  No    Charge         Core      Valence    Rydberg      Total
 -----------------------------------------------------------------------
      C    1   -0.23412      1.99908     4.21765    0.01738     6.23412
      C    2   -0.24669      1.99906     4.23079    0.01684     6.24669
      C    3    0.38265      1.99844     3.59255    0.02636     5.61735
      C    4   -0.24892      1.99906     4.23248    0.01737     6.24892
      C    5   -0.26706      1.99908     4.25097    0.01701     6.26706
      C    6    0.29943      1.99878     3.67836    0.02343     5.70057
      H    7    0.22356      0.00000     0.77473    0.00171     0.77644
      H    8    0.22536      0.00000     0.77298    0.00166     0.77464
      H    9    0.22554      0.00000     0.77285    0.00161     0.77446
      H   10    0.20607      0.00000     0.79193    0.00200     0.79393
      O   11   -0.67690      1.99975     6.66474    0.01241     8.67690
      H   12    0.46964      0.00000     0.52600    0.00436     0.53036
      F   13   -0.35857      1.99993     7.35093    0.00771     9.35857
 =======================================================================
   * Total *    0.00000     15.99318    41.85696    0.14986    58.00000

                      1                      2                      3
                      A                      A                      A
 Frequencies --    155.3287               283.5054               343.1704
 Red. masses --      7.8774                 1.1034                 7.1021
 Frc consts  --      0.1120                 0.0523                 0.4928
 IR Inten    --      0.1019               114.0647                 5.7804

                      4                      5                      6
                      A                      A                      A
 Frequencies --    367.0633               428.4809               447.4076
 Red. masses --      7.4013                 3.0463                 4.0956
 Frc consts  --      0.5875                 0.3295                 0.4830
 IR Inten    --      0.0109                 1.3851                 6.5147

                      7                      8                      9
                      A                      A                      A
 Frequencies --    462.9700               515.2031               652.4683
 Red. masses --     10.4960                 2.2837                 7.0448
 Frc consts  --      1.3255                 0.3572                 1.7670
 IR Inten    --      1.3558                24.1060                 0.4790

                     10                     11                     12
                      A                      A                      A
 Frequencies --    688.9284               751.4548               801.9271
 Red. masses --      4.1969                 6.1110                 1.2773
 Frc consts  --      1.1736                 2.0331                 0.4839
 IR Inten    --      0.0771                68.2288                 7.7427

                     13                     14                     15
                      A                      A                      A
 Frequencies --    842.1808               861.2020               921.1769
 Red. masses --      1.6751                 6.5191                 1.3041
 Frc consts  --      0.7000                 2.8487                 0.6520
 IR Inten    --     67.0747                 0.4274                 1.1414

                     16                     17                     18
                      A                      A                      A
 Frequencies --    956.6319              1024.2881              1110.2348
 Red. masses --      1.3225                 2.4924                 1.2802
 Frc consts  --      0.7131                 1.5407                 0.9297
 IR Inten    --      0.0085                 1.3679                18.6848

                     19                     20                     21
                      A                      A                      A
 Frequencies --   1169.1122              1185.9226              1228.9810
 Red. masses --      1.1522                 1.3930                 3.0196
 Frc consts  --      0.9279                 1.1543                 2.6871
 IR Inten    --      3.4717               143.1916               174.1286

                     22                     23                     24
                      A                      A                      A
 Frequencies --   1280.2282              1317.1032              1355.4838
 Red. masses --      5.2961                 1.6594                 2.9858
 Frc consts  --      5.1143                 1.6960                 3.2322
 IR Inten    --     25.3752                 3.4223                26.1893

                     25                     26                     27
                      A                      A                      A
 Frequencies --   1466.9483              1538.4224              1645.3537
 Red. masses --      2.9581                 2.7205                 6.6497
 Frc consts  --      3.7505                 3.7936                10.6065
 IR Inten    --     27.9391               232.0367                 4.3682

                     28                     29                     30
                      A                      A                      A
 Frequencies --   1655.6201              3159.6000              3191.7769
 Red. masses --      6.3875                 1.0898                 1.0886
 Frc consts  --     10.3157                 6.4098                 6.5339
 IR Inten    --      0.3278                12.2821                 3.3149

                     31                     32                     33
                      A                      A                      A
 Frequencies --   3201.6254              3205.2737              3840.0552
 Red. masses --      1.0934                 1.0954                 1.0663
 Frc consts  --      6.6035                 6.6309                 9.2639
 IR Inten    --      1.4503                 0.8798                65.6979

 - Thermochemistry -
 -------------------
 Temperature   298.150 Kelvin.  Pressure   1.00000 Atm.
 Atom     1 has atomic number  6 and mass  12.00000

 Molecular mass:   112.03244 amu.
 Principal axes and moments of inertia in atomic units:
                           1         2         3
     Eigenvalues --   319.619681245.266251564.88593
           X            0.99995   0.01006   0.00000
           Y           -0.01006   0.99995   0.00000
           Z            0.00000   0.00000   1.00000
 This molecule is an asymmetric top.
 Rotational symmetry number  1.
 Rotational temperatures (Kelvin)      0.27099     0.06955     0.05535
 Rotational constants (GHZ):           5.64653     1.44928     1.15327
 Zero-point vibrational energy     251545.5 (Joules/Mol)
                                   60.12082 (Kcal/Mol)
 Warning -- explicit consideration of   8 degrees of freedom as
           vibrations may cause significant error
 Vibrational temperatures:    223.48   407.90   493.75   528.12   616.49
          (Kelvin)            643.72   666.11   741.26   938.76   991.21
                             1081.17  1153.79  1211.71  1239.08  1325.37
                             1376.38  1473.72  1597.38  1682.09  1706.28
                             1768.23  1841.96  1895.02  1950.24  2110.61
                             2213.44  2367.29  2382.07  4545.95  4592.25
                             4606.42  4611.67  5524.98

 Zero-point correction=                           0.095809 (Hartree/Particle)
 Thermal correction to Energy=                    0.102243
 Thermal correction to Enthalpy=                  0.103188
 Thermal correction to Gibbs Free Energy=         0.065396
 Sum of electronic and zero-point Energies=           -406.729534
 Sum of electronic and thermal Energies=              -406.723099
 Sum of electronic and thermal Enthalpies=            -406.722155
 Sum of electronic and thermal Free Energies=         -406.759947

                     E (Thermal)             CV                S
                      KCal/Mol        Cal/Mol-Kelvin    Cal/Mol-Kelvin
 Total                   64.159             25.116             79.540
 Electronic               0.000              0.000              0.000
 Translational            0.889              2.981             40.057
 Rotational               0.889              2.981             27.923
 Vibrational             62.381             19.154             11.560
 Vibration     1          0.620              1.897              2.606
 Vibration     2          0.682              1.704              1.512
 Vibration     3          0.722              1.589              1.197
 Vibration     4          0.740              1.540              1.092
 Vibration     5          0.790              1.408              0.864
 Vibration     6          0.807              1.367              0.804
 Vibration     7          0.821              1.332              0.758
 Vibration     8          0.870              1.216              0.621

 Optimization completed.
    -- Stationary point found.
 Normal termination of Gaussian 09 at Tue Apr 23 11:59:21 2024.
