 Gaussian 09, Revision D.01,
 Gaussian 09:  ES64L-G09RevD.01 24-Apr-2013

 ----------------------------------------------------------------------
 # opt freq=noraman b3lyp/6-311+g(d,p) pop=(npa,hirshfeld,chelpg,mbs) g
 eom=connectivity
 ----------------------------------------------------------------------

 -------------------
 Title Card Required
 -------------------
 Symbolic Z-matrix:
 Charge =  0 Multiplicity = 1

 SCF Done:  E(RB3LYP) =  -425.506304444     A.U. after   14 cycles
 SCF Done:  E(RB3LYP) =  -425.514177061     A.U. after   13 cycles
 SCF Done:  E(RB3LYP) =  -425.514875431     A.U. after   11 cycles
 SCF Done:  E(RB3LYP) =  -425.515013625     A.U. after   11 cycles
 SCF Done:  E(RB3LYP) =  -425.515094369     A.U. after   12 cycles
 SCF Done:  E(RB3LYP) =  -425.515140233     A.U. after   10 cycles
 SCF Done:  E(RB3LYP) =  -425.515405062     A.U. after   13 cycles
 SCF Done:  E(RB3LYP) =  -425.515092039     A.U. after   14 cycles
 SCF Done:  E(RB3LYP) =  -425.515600990     A.U. after   11 cycles
 SCF Done:  E(RB3LYP) =  -425.515935252     A.U. after   12 cycles
 SCF Done:  E(RB3LYP) =  -425.516943512     A.U. after    8 cycles
 SCF Done:  E(RB3LYP) =  -425.516943425     A.U. after    8 cycles
 SCF Done:  E(RB3LYP) =  -425.516943113     A.U. after    9 cycles
 SCF Done:  E(RB3LYP) =  -425.516942423     A.U. after   10 cycles
 SCF Done:  E(RB3LYP) =  -425.516941871     A.U. after   10 cycles
 SCF Done:  E(RB3LYP) =  -425.516941806     A.U. after    9 cycles
 SCF Done:  E(RB3LYP) =  -425.516941769     A.U. after    8 cycles
 SCF Done:  E(RB3LYP) =  -425.516941856     A.U. after    9 cycles
 SCF Done:  E(RB3LYP) =  -425.516941868     A.U. after    7 cycles
 Optimization completed on the basis of negligible forces.
    -- Stationary point found.
 Normal termination of Gaussian 09 at Thu May 23 09:41:48 2024.

 ----------------------------------------------------------------------
 #N Geom=AllCheck Guess=TCheck SCRF=Check GenChk RB3LYP/6-311+G(d,p) Fr
 eq
 ----------------------------------------------------------------------

 Structure from the checkpoint file:  "88.chk"
 -------------------
 Title Card Required
 -------------------
 Charge =  0 Multiplicity = 1

                         Standard orientation:
 ---------------------------------------------------------------------
 Center     Atomic      Atomic             Coordinates (Angstroms)
 Number     Number       Type             X           Y           Z
 ---------------------------------------------------------------------
      1          6           0        1.725687    1.202806    0.136555
      2          6           0        0.347280    1.227084   -0.094854
      3          6           0       -0.326829    0.000475   -0.189843
      4          6           0        0.344463   -1.227666   -0.095003
      5          6           0        1.722947   -1.206531    0.136396
      6          6           0        2.410523   -0.002664    0.259446
      7          1           0        2.264879    2.141730    0.209532
      8          1           0        2.259991   -2.146699    0.209228
      9          1           0        3.480449   -0.003891    0.434996
     10          6           0       -0.399179   -2.530095   -0.261115
     11          1           0       -0.992152   -2.776267    0.626130
     12          1           0       -1.090218   -2.482747   -1.105401
     13          1           0        0.298985   -3.352851   -0.426502
     14          6           0       -0.393505    2.531131   -0.260971
     15          1           0       -1.082231    2.486372   -1.107303
     16          1           0       -0.988650    2.776930    0.624904
     17          1           0        0.306606    3.352879   -0.423076
     18          8           0       -1.685314    0.002185   -0.469377
     19          6           0       -2.539603    0.002190    0.674591
     20          1           0       -3.562639    0.004096    0.297964
     21          1           0       -2.382917   -0.889754    1.290710
     22          1           0       -2.380286    0.892346    1.292626
 ---------------------------------------------------------------------

 SCF Done:  E(RB3LYP) =  -425.516941868     A.U. after    1 cycles

 The electronic state is 1-A.
 Alpha  occ. eigenvalues --  -19.13758 -10.22193 -10.22162 -10.18231 -10.18230
 Alpha  occ. eigenvalues --  -10.17109 -10.17050 -10.17024 -10.16681 -10.16681
 Alpha  occ. eigenvalues --   -1.05281  -0.85858  -0.78649  -0.76006  -0.71555
 Alpha  occ. eigenvalues --   -0.68233  -0.67321  -0.58833  -0.58380  -0.51985
 Alpha  occ. eigenvalues --   -0.49260  -0.47205  -0.46622  -0.44018  -0.42719
 Alpha  occ. eigenvalues --   -0.41709  -0.41497  -0.40632  -0.40611  -0.37775
 Alpha  occ. eigenvalues --   -0.37228  -0.35120  -0.34874  -0.33396  -0.27843
 Alpha  occ. eigenvalues --   -0.24385  -0.23920
 Alpha virt. eigenvalues --   -0.01134  -0.01040   0.00360   0.01416   0.01670
 Alpha virt. eigenvalues --    0.02560   0.03780   0.04023   0.04567   0.05709
 Alpha virt. eigenvalues --    0.05979   0.06490   0.06992   0.08027   0.08450

 Mulliken charges:
               1
     1  C   -1.090810
     2  C    1.666602
     3  C   -1.739133
     4  C    1.667983
     5  C   -1.089796
     6  C    0.165748
     7  H    0.115959
     8  H    0.115982
     9  H    0.119954
    10  C   -0.413971
    11  H    0.152392
    12  H    0.166056
    13  H    0.138993
    14  C   -0.413406
    15  H    0.166038
    16  H    0.152217
    17  H    0.138952
    18  O   -0.160189
    19  C   -0.277220
    20  H    0.151267
    21  H    0.133198
    22  H    0.133188
 Sum of Mulliken charges =   0.00000

 Dipole moment (field-independent basis, Debye):
    X=             -0.4639    Y=             -0.0007    Z=              1.1668  Tot=              1.2556
 Quadrupole moment (field-independent basis, Debye-Ang):
   XX=            -56.9780   YY=            -56.6504   ZZ=            -64.6026
   XY=              0.0023   XZ=             -2.3138   YZ=              0.0028

  Exact polarizability: 128.108  -0.001 127.276   2.949  -0.004  72.533
 Approx polarizability: 190.348  -0.008 187.209   9.930  -0.013 112.519

 ESP charges:
               1
     1  C   -0.279478
     2  C    0.147904
     3  C    0.086896
     4  C    0.146378
     5  C   -0.280959
     6  C   -0.022064
     7  H    0.133342
     8  H    0.134000
     9  H    0.083315
    10  C   -0.138318
    11  H    0.052974
    12  H    0.051022
    13  H    0.040754
    14  C   -0.146998
    15  H    0.052913
    16  H    0.055272
    17  H    0.043333
    18  O   -0.355216
    19  C    0.122150
    20  H    0.054133
    21  H    0.009170
    22  H    0.009477
 Sum of ESP charges =   0.00000

 Summary of Natural Population Analysis:

                                       Natural Population
                Natural  -----------------------------------------------
    Atom  No    Charge         Core      Valence    Rydberg      Total
 -----------------------------------------------------------------------
      C    1   -0.20450      1.99907     4.18823    0.01720     6.20450
      C    2   -0.05708      1.99894     4.04208    0.01606     6.05708
      C    3    0.30274      1.99855     3.67617    0.02254     5.69726
      C    4   -0.05711      1.99894     4.04210    0.01606     6.05711
      C    5   -0.20449      1.99907     4.18822    0.01720     6.20449
      C    6   -0.20264      1.99916     4.18498    0.01850     6.20264
      H    7    0.20210      0.00000     0.79620    0.00170     0.79790
      H    8    0.20210      0.00000     0.79620    0.00170     0.79790
      H    9    0.20483      0.00000     0.79352    0.00165     0.79517
      C   10   -0.59042      1.99931     4.58073    0.01039     6.59042
      H   11    0.20687      0.00000     0.79154    0.00160     0.79313
      H   12    0.22154      0.00000     0.77664    0.00181     0.77846
      H   13    0.20507      0.00000     0.79355    0.00138     0.79493
      C   14   -0.59036      1.99931     4.58067    0.01039     6.59036
      H   15    0.22154      0.00000     0.77665    0.00181     0.77846
      H   16    0.20686      0.00000     0.79154    0.00160     0.79314
      H   17    0.20503      0.00000     0.79359    0.00138     0.79497
      O   18   -0.58878      1.99973     6.56986    0.01920     8.58878
      C   19   -0.19425      1.99924     4.17942    0.01559     6.19425
      H   20    0.18418      0.00000     0.81459    0.00124     0.81582
      H   21    0.16338      0.00000     0.83440    0.00222     0.83662
      H   22    0.16338      0.00000     0.83440    0.00222     0.83662
 =======================================================================
   * Total *    0.00000     19.99131    53.82528    0.18342    74.00000

 ******    1 imaginary frequencies (negative Signs) ******

                      1                      2                      3
                      A                      A                      A
 Frequencies --    -22.4579                78.3802               108.6141
 Red. masses --      1.3235                 1.1180                 1.7662
 Frc consts  --      0.0004                 0.0040                 0.0123
 IR Inten    --      2.1640                 0.3625                 1.5214

                      4                      5                      6
                      A                      A                      A
 Frequencies --    112.4130               133.2429               197.5266
 Red. masses --      2.5364                 1.0379                 3.0176
 Frc consts  --      0.0189                 0.0109                 0.0694
 IR Inten    --      0.4470                 0.2531                 5.4219

                      7                      8                      9
                      A                      A                      A
 Frequencies --    229.1967               280.5591               312.0982
 Red. masses --      2.9520                 2.6968                 3.7951
 Frc consts  --      0.0914                 0.1251                 0.2178
 IR Inten    --      0.0045                 1.8297                 6.6780

                     10                     11                     12
                      A                      A                      A
 Frequencies --    361.0533               487.5599               495.0374
 Red. masses --      3.4382                 3.4850                 5.3033
 Frc consts  --      0.2641                 0.4881                 0.7657
 IR Inten    --      5.5372                 1.9512                 1.6796

                     13                     14                     15
                      A                      A                      A
 Frequencies --    518.7485               558.4701               582.9391
 Red. masses --      3.1248                 5.3403                 3.4505
 Frc consts  --      0.4954                 0.9813                 0.6908
 IR Inten    --      0.3983                 0.0339                 1.4250

                     16                     17                     18
                      A                      A                      A
 Frequencies --    663.1175               772.5585               777.8000
 Red. masses --      4.4212                 4.6877                 1.2191
 Frc consts  --      1.1454                 1.6484                 0.4345
 IR Inten    --      2.7082                 0.3825                45.0784

                     19                     20                     21
                      A                      A                      A
 Frequencies --    818.6702               903.9126               928.3503
 Red. masses --      4.7350                 1.3125                 2.6297
 Frc consts  --      1.8698                 0.6318                 1.3353
 IR Inten    --      8.9648                 0.0744                 5.4489

                     22                     23                     24
                      A                      A                      A
 Frequencies --    979.0690              1004.4640              1035.5524
 Red. masses --      1.3096                 1.5479                 7.4954
 Frc consts  --      0.7396                 0.9202                 4.7357
 IR Inten    --      0.1781                 2.1626                67.1480

                     25                     26                     27
                      A                      A                      A
 Frequencies --   1048.3254              1058.1593              1061.0853
 Red. masses --      1.7889                 1.5543                 1.5162
 Frc consts  --      1.1583                 1.0254                 1.0058
 IR Inten    --      0.6516                 1.0028                 1.7835

                     28                     29                     30
                      A                      A                      A
 Frequencies --   1114.8952              1168.4807              1188.2054
 Red. masses --      1.7412                 1.2565                 1.2050
 Frc consts  --      1.2752                 1.0108                 1.0024
 IR Inten    --     34.4244                 0.7535                 0.5818

                     31                     32                     33
                      A                      A                      A
 Frequencies --   1191.8169              1230.4977              1277.8108
 Red. masses --      1.7921                 3.0085                 1.6382
 Frc consts  --      1.4998                 2.6839                 1.5760
 IR Inten    --     27.7444                86.2536                 0.1275

                     34                     35                     36
                      A                      A                      A
 Frequencies --   1282.2379              1320.0775              1413.9510
 Red. masses --      3.1895                 6.7192                 1.2379
 Frc consts  --      3.0897                 6.8987                 1.4581
 IR Inten    --     35.1743                 0.2191                 2.3876

                     37                     38                     39
                      A                      A                      A
 Frequencies --   1416.7058              1445.4698              1478.4640
 Red. masses --      1.2892                 1.6589                 1.1476
 Frc consts  --      1.5244                 2.0421                 1.4779
 IR Inten    --      0.5018                19.7722                 9.8800

                     40                     41                     42
                      A                      A                      A
 Frequencies --   1479.9432              1485.9966              1486.4311
 Red. masses --      1.0490                 1.0888                 1.3713
 Frc consts  --      1.3537                 1.4165                 1.7851
 IR Inten    --      1.2974                 9.0039                 0.1162

                     43                     44                     45
                      A                      A                      A
 Frequencies --   1489.2933              1505.0450              1508.9149
 Red. masses --      1.0472                 1.1606                 1.6251
 Frc consts  --      1.3684                 1.5489                 2.1800
 IR Inten    --      6.6052                 4.3471                12.5698

                     46                     47                     48
                      A                      A                      A
 Frequencies --   1515.0012              1627.4264              1631.6131
 Red. masses --      1.3171                 5.2498                 7.2061
 Frc consts  --      1.7811                 8.1921                11.3028
 IR Inten    --     58.9765                 2.5955                 1.2923

                     49                     50                     51
                      A                      A                      A
 Frequencies --   3004.2599              3024.8197              3026.0918
 Red. masses --      1.0330                 1.0425                 1.0417
 Frc consts  --      5.4930                 5.6196                 5.6204
 IR Inten    --     47.7754                37.8832                26.2757

                     52                     53                     54
                      A                      A                      A
 Frequencies --   3058.9855              3079.3483              3079.4388
 Red. masses --      1.1050                 1.0923                 1.0921
 Frc consts  --      6.0922                 6.1028                 6.1017
 IR Inten    --     50.5478                 5.8605                31.1470

                     55                     56                     57
                      A                      A                      A
 Frequencies --   3110.4462              3110.7213              3119.2036
 Red. masses --      1.1027                 1.1026                 1.1006
 Frc consts  --      6.2856                 6.2862                 6.3092
 IR Inten    --      9.4349                17.7406                28.3464

                     58                     59                     60
                      A                      A                      A
 Frequencies --   3155.7324              3162.8051              3182.8998
 Red. masses --      1.0859                 1.0906                 1.0962
 Frc consts  --      6.3712                 6.4279                 6.5433
 IR Inten    --      0.1814                23.2929                21.9013

 - Thermochemistry -
 -------------------
 Temperature   298.150 Kelvin.  Pressure   1.00000 Atm.
 Atom     1 has atomic number  6 and mass  12.00000

 Molecular mass:   136.08882 amu.
 Principal axes and moments of inertia in atomic units:
                           1         2         3
     Eigenvalues --  1092.705421224.389672175.68930
           X            0.99992   0.00048  -0.01275
           Y           -0.00048   1.00000   0.00001
           Z            0.01275  -0.00001   0.99992
 This molecule is an asymmetric top.
 Rotational symmetry number  1.
 Warning -- assumption of classical behavior for rotation
           may cause significant error
 Rotational temperatures (Kelvin)      0.07927     0.07074     0.03981
 Rotational constants (GHZ):           1.65163     1.47399     0.82950
    1 imaginary frequencies ignored.
 Zero-point vibrational energy     489750.8 (Joules/Mol)
                                  117.05324 (Kcal/Mol)
 Warning -- explicit consideration of  14 degrees of freedom as
           vibrations may cause significant error
 Vibrational temperatures:    112.77   156.27   161.74   191.71   284.20
          (Kelvin)            329.76   403.66   449.04   519.47   701.49
                              712.25   746.36   803.51   838.72   954.08
                             1111.54  1119.08  1177.88  1300.53  1335.69
                             1408.66  1445.20  1489.93  1508.30  1522.45
                             1526.66  1604.08  1681.18  1709.56  1714.76
                             1770.41  1838.48  1844.85  1899.29  2034.36
                             2038.32  2079.71  2127.18  2129.31  2138.01
                             2138.64  2142.76  2165.42  2170.99  2179.75
                             2341.50  2347.52  4322.45  4352.04  4353.87
                             4401.19  4430.49  4430.62  4475.23  4475.63
                             4487.83  4540.39  4550.57  4579.48

 Zero-point correction=                           0.186536 (Hartree/Particle)
 Thermal correction to Energy=                    0.196420
 Thermal correction to Enthalpy=                  0.197364
 Thermal correction to Gibbs Free Energy=         0.151420
 Sum of electronic and zero-point Energies=           -425.330406
 Sum of electronic and thermal Energies=              -425.320522
 Sum of electronic and thermal Enthalpies=            -425.319578
 Sum of electronic and thermal Free Energies=         -425.365522

                     E (Thermal)             CV                S
                      KCal/Mol        Cal/Mol-Kelvin    Cal/Mol-Kelvin
 Total                  123.255             36.711             96.698
 Electronic               0.000              0.000              0.000
 Translational            0.889              2.981             40.637
 Rotational               0.889              2.981             29.455
 Vibrational            121.478             30.750             26.606
 Vibration     1          0.600              1.964              3.931
 Vibration     2          0.606              1.942              3.294
 Vibration     3          0.607              1.939              3.227
 Vibration     4          0.613              1.920              2.899
 Vibration     5          0.637              1.843              2.156
 Vibration     6          0.652              1.796              1.885
 Vibration     7          0.680              1.710              1.530
 Vibration     8          0.700              1.651              1.351
 Vibration     9          0.735              1.552              1.118
 Vibration    10          0.844              1.278              0.690
 Vibration    11          0.851              1.261              0.671
 Vibration    12          0.874              1.208              0.613
 Vibration    13          0.914              1.121              0.527
 Vibration    14          0.940              1.068              0.480

 Optimization completed on the basis of negligible forces.
    -- Stationary point found.
 Normal termination of Gaussian 09 at Thu May 23 09:44:37 2024.
