 Gaussian 09, Revision D.01,
 Gaussian 09:  ES64L-G09RevD.01 24-Apr-2013

 ----------------------------------------------------------------------
 # opt freq=noraman b3lyp/6-311+g(d,p) pop=(npa,hirshfeld,chelpg,mbs) g
 eom=connectivity
 ----------------------------------------------------------------------

 --------
 Table4_6
 --------
 Symbolic Z-matrix:
 Charge =  0 Multiplicity = 1

 SCF Done:  E(RB3LYP) =  -502.965361387     A.U. after   14 cycles
 Optimization completed.
    -- Stationary point found.
 Normal termination of Gaussian 09 at Thu Sep 12 14:46:02 2024.

 ----------------------------------------------------------------------
 #N Geom=AllCheck Guess=TCheck SCRF=Check GenChk RB3LYP/6-311+G(d,p) Fr
 eq
 ----------------------------------------------------------------------

 Structure from the checkpoint file:  "Table4_6_fixed.chk"
 --------
 Table4_6
 --------
 Charge =  0 Multiplicity = 1

                         Standard orientation:
 ---------------------------------------------------------------------
 Center     Atomic      Atomic             Coordinates (Angstroms)
 Number     Number       Type             X           Y           Z
 ---------------------------------------------------------------------
      1          6           0       -0.713860    0.254419   -0.080079
      2          6           0       -1.678687    1.253796    0.125907
      3          6           0       -3.029741    0.939502    0.206322
      4          1           0       -4.503343   -0.630941    0.118116
      5          1           0       -2.824229   -2.413461   -0.279430
      6          1           0       -0.445633   -1.870495   -0.393997
      7          1           0       -1.343064    2.278958    0.218429
      8          1           0       -3.756936    1.725385    0.376899
      9          6           0        0.723938    0.717702   -0.169606
     10          8           0        0.929346    1.889265   -0.427971
     11          6           0        1.929048   -0.228476    0.079157
     12          6           0        2.144622   -1.128954   -1.162183
     13          1           0        3.047448   -1.730051   -1.018717
     14          1           0        1.318032   -1.814942   -1.350709
     15          1           0        2.286985   -0.521213   -2.059708
     16          6           0        1.733081   -1.076912    1.354624
     17          1           0        0.900411   -1.776195    1.286499
     18          1           0        2.640998   -1.656270    1.546420
     19          1           0        1.559500   -0.437454    2.225007
     20          6           0        3.189956    0.637345    0.262051
     21          1           0        3.092331    1.304180    1.121709
     22          1           0        4.055309   -0.011256    0.425943
     23          1           0        3.378849    1.257601   -0.614414
     24          6           0       -3.449213   -0.383150    0.062333
     25          6           0       -2.506205   -1.384290   -0.156559
     26          6           0       -1.149843   -1.070645   -0.218348
 ---------------------------------------------------------------------

 SCF Done:  E(RB3LYP) =  -502.965361387     A.U. after    2 cycles

 The electronic state is 1-A.
 Alpha  occ. eigenvalues --  -19.11393 -10.26428 -10.19955 -10.19574 -10.19305
 Alpha  occ. eigenvalues --  -10.19117 -10.18878 -10.18675 -10.18574 -10.17208
 Alpha  occ. eigenvalues --  -10.16862 -10.15626  -1.05026  -0.87262  -0.82501
 Alpha  occ. eigenvalues --   -0.77092  -0.76205  -0.69995  -0.68845  -0.65410
 Alpha  occ. eigenvalues --   -0.62241  -0.59961  -0.55169  -0.50687  -0.48954
 Alpha  occ. eigenvalues --   -0.46935  -0.45942  -0.45495  -0.44682  -0.43867
 Alpha  occ. eigenvalues --   -0.42500  -0.41674  -0.39241  -0.38808  -0.38193
 Alpha  occ. eigenvalues --   -0.37391  -0.36750  -0.36583  -0.35428  -0.34040
 Alpha  occ. eigenvalues --   -0.33340  -0.27077  -0.26923  -0.25409
 Alpha virt. eigenvalues --   -0.06606  -0.02555  -0.00436   0.00792   0.01223
 Alpha virt. eigenvalues --    0.01929   0.03012   0.03040   0.03492   0.04255
 Alpha virt. eigenvalues --    0.05247   0.05440   0.05604   0.06112   0.06228

 Mulliken charges:
               1
     1  C    1.621031
     2  C   -0.078463
     3  C   -0.255590
     4  H    0.130594
     5  H    0.127069
     6  H    0.118029
     7  H    0.149999
     8  H    0.130725
     9  C   -0.985800
    10  O   -0.215539
    11  C    0.588628
    12  C   -0.425093
    13  H    0.146029
    14  H    0.129790
    15  H    0.157137
    16  C   -0.557065
    17  H    0.135826
    18  H    0.145687
    19  H    0.145409
    20  C   -0.535566
    21  H    0.147777
    22  H    0.133075
    23  H    0.165555
    24  C   -0.142627
    25  C   -0.518226
    26  C   -0.458391
 Sum of Mulliken charges =   0.00000

 Dipole moment (field-independent basis, Debye):
    X=             -0.9500    Y=             -2.5962    Z=              0.5850  Tot=              2.8258
 Quadrupole moment (field-independent basis, Debye-Ang):
   XX=            -66.4163   YY=            -75.1471   ZZ=            -76.2457
   XY=             -3.2650   XZ=             -0.0925   YZ=              2.7473

  Exact polarizability: 169.413   3.578 131.756  -3.309   2.705  92.865
 Approx polarizability: 232.103  10.708 225.054  -7.809   4.637 138.382

 ESP charges:
               1
     1  C    0.020621
     2  C   -0.061698
     3  C   -0.092430
     4  H    0.088379
     5  H    0.079627
     6  H    0.135785
     7  H    0.098291
     8  H    0.088525
     9  C    0.309841
    10  O   -0.476007
    11  C    0.553724
    12  C   -0.287627
    13  H    0.065449
    14  H    0.024911
    15  H    0.055115
    16  C   -0.350640
    17  H    0.042775
    18  H    0.085665
    19  H    0.045864
    20  C   -0.266234
    21  H    0.060897
    22  H    0.030970
    23  H    0.053923
    24  C   -0.073045
    25  C   -0.060975
    26  C   -0.171705
 Sum of ESP charges =   0.00000

 Summary of Natural Population Analysis:

                                       Natural Population
                Natural  -----------------------------------------------
    Atom  No    Charge         Core      Valence    Rydberg      Total
 -----------------------------------------------------------------------
      C    1   -0.14530      1.99893     4.12589    0.02048     6.14530
      C    2   -0.15274      1.99909     4.13575    0.01790     6.15274
      C    3   -0.20456      1.99915     4.18795    0.01746     6.20456
      H    4    0.20792      0.00000     0.79073    0.00136     0.79208
      H    5    0.20811      0.00000     0.79037    0.00152     0.79189
      H    6    0.20495      0.00000     0.79299    0.00206     0.79505
      H    7    0.22963      0.00000     0.76820    0.00217     0.77037
      H    8    0.20945      0.00000     0.78909    0.00145     0.79055
      C    9    0.58270      1.99915     3.37180    0.04635     5.41730
      O   10   -0.56117      1.99976     6.54843    0.01298     8.56117
      C   11   -0.16077      1.99914     4.14487    0.01677     6.16077
      C   12   -0.56380      1.99928     4.55349    0.01103     6.56380
      H   13    0.20539      0.00000     0.79313    0.00149     0.79461
      H   14    0.19644      0.00000     0.80231    0.00126     0.80356
      H   15    0.21082      0.00000     0.78798    0.00119     0.78918
      C   16   -0.57123      1.99930     4.56086    0.01107     6.57123
      H   17    0.20406      0.00000     0.79459    0.00136     0.79594
      H   18    0.20443      0.00000     0.79410    0.00147     0.79557
      H   19    0.20748      0.00000     0.79135    0.00117     0.79252
      C   20   -0.56668      1.99931     4.55376    0.01361     6.56668
      H   21    0.20873      0.00000     0.78997    0.00131     0.79127
      H   22    0.19461      0.00000     0.80397    0.00142     0.80539
      H   23    0.21797      0.00000     0.78066    0.00137     0.78203
      C   24   -0.18125      1.99916     4.16437    0.01773     6.18125
      C   25   -0.20697      1.99916     4.19010    0.01771     6.20697
      C   26   -0.17819      1.99908     4.16445    0.01466     6.17819
 =======================================================================
   * Total *    0.00000     23.99051    63.77113    0.23836    88.00000

                      1                      2                      3
                      A                      A                      A
 Frequencies --     28.6283                80.1479               126.9400
 Red. masses --      4.4498                 2.8968                 4.3046
 Frc consts  --      0.0021                 0.0110                 0.0409
 IR Inten    --      1.6806                 0.1478                 0.8542

                      4                      5                      6
                      A                      A                      A
 Frequencies --    171.4533               179.1187               216.1234
 Red. masses --      3.8145                 1.1158                 1.1410
 Frc consts  --      0.0661                 0.0211                 0.0314
 IR Inten    --      0.7007                 0.1256                 0.1786

                      7                      8                      9
                      A                      A                      A
 Frequencies --    252.7360               263.5733               285.3915
 Red. masses --      1.7616                 2.3768                 1.4500
 Frc consts  --      0.0663                 0.0973                 0.0696
 IR Inten    --      0.6352                 0.7135                 0.7639

                     10                     11                     12
                      A                      A                      A
 Frequencies --    306.2196               364.6923               385.8678
 Red. masses --      3.1878                 2.8075                 2.3505
 Frc consts  --      0.1761                 0.2200                 0.2062
 IR Inten    --      0.6246                 3.7108                 0.2237

                     13                     14                     15
                      A                      A                      A
 Frequencies --    407.7538               418.3869               451.8418
 Red. masses --      4.0623                 2.9442                 3.2473
 Frc consts  --      0.3979                 0.3037                 0.3906
 IR Inten    --      2.3874                 0.5304                 2.8248

                     16                     17                     18
                      A                      A                      A
 Frequencies --    536.4691               592.7686               633.7430
 Red. masses --      3.5559                 4.2944                 6.3945
 Frc consts  --      0.6030                 0.8890                 1.5132
 IR Inten    --      5.2416                 4.7921                 0.5222

                     19                     20                     21
                      A                      A                      A
 Frequencies --    695.5867               703.9253               724.8347
 Red. masses --      5.0746                 2.6489                 1.7968
 Frc consts  --      1.4466                 0.7733                 0.5562
 IR Inten    --      5.0477                20.3916                56.1623

                     22                     23                     24
                      A                      A                      A
 Frequencies --    809.3625               820.3590               862.3639
 Red. masses --      2.9257                 2.8156                 1.2503
 Frc consts  --      1.1292                 1.1164                 0.5478
 IR Inten    --      8.3247                 1.5646                 1.1309

                     25                     26                     27
                      A                      A                      A
 Frequencies --    935.7938               939.7937               948.1027
 Red. masses --      1.7827                 1.7402                 1.5112
 Frc consts  --      0.9198                 0.9056                 0.8004
 IR Inten    --      1.1337                 1.2203                13.1082

                     28                     29                     30
                      A                      A                      A
 Frequencies --    964.3100               967.1946               997.5153
 Red. masses --      1.5705                 1.7868                 1.3643
 Frc consts  --      0.8604                 0.9848                 0.7998
 IR Inten    --     35.4349                47.6928                 1.3340

                     31                     32                     33
                      A                      A                      A
 Frequencies --   1012.7247              1017.2039              1041.0785
 Red. masses --      1.3060                 6.0376                 1.4496
 Frc consts  --      0.7892                 3.6807                 0.9257
 IR Inten    --      1.1853                 2.9066                 0.5494

                     34                     35                     36
                      A                      A                      A
 Frequencies --   1047.0011              1058.0620              1108.0107
 Red. masses --      1.8947                 1.6271                 1.5707
 Frc consts  --      1.2237                 1.0732                 1.1361
 IR Inten    --      1.6296                 0.9703                 4.0464

                     37                     38                     39
                      A                      A                      A
 Frequencies --   1183.6906              1189.3583              1210.6098
 Red. masses --      1.1128                 2.0917                 1.4039
 Frc consts  --      0.9187                 1.7433                 1.2123
 IR Inten    --      1.4337               125.6268                13.0063

                     40                     41                     42
                      A                      A                      A
 Frequencies --   1218.1188              1237.6355              1282.9932
 Red. masses --      2.6287                 2.7760                 3.3595
 Frc consts  --      2.2981                 2.5053                 3.2582
 IR Inten    --      2.8657                 4.6439                44.8767

                     43                     44                     45
                      A                      A                      A
 Frequencies --   1330.9591              1350.7105              1400.3089
 Red. masses --      3.3869                 1.7432                 1.1986
 Frc consts  --      3.5350                 1.8738                 1.3847
 IR Inten    --      2.7849                 1.9883                 7.8429

                     46                     47                     48
                      A                      A                      A
 Frequencies --   1403.4238              1433.2570              1473.1917
 Red. masses --      1.2118                 1.2147                 2.1437
 Frc consts  --      1.4063                 1.4702                 2.7411
 IR Inten    --      8.0392                14.8405                 8.8002

                     49                     50                     51
                      A                      A                      A
 Frequencies --   1478.5085              1486.4413              1491.5258
 Red. masses --      1.0484                 1.0450                 1.0462
 Frc consts  --      1.3503                 1.3604                 1.3713
 IR Inten    --      0.3256                 0.2143                 0.2480

                     52                     53                     54
                      A                      A                      A
 Frequencies --   1502.5203              1504.0584              1518.9217
 Red. masses --      1.0517                 1.0967                 1.5306
 Frc consts  --      1.3990                 1.4617                 2.0806
 IR Inten    --      7.0756                 9.8855                 9.5929

                     55                     56                     57
                      A                      A                      A
 Frequencies --   1521.9605              1616.1176              1635.9620
 Red. masses --      1.2650                 5.3271                 5.5433
 Frc consts  --      1.7264                 8.1976                 8.7411
 IR Inten    --     16.5819                 8.3558                17.4408

                     58                     59                     60
                      A                      A                      A
 Frequencies --   1726.7047              3028.4841              3029.1550
 Red. masses --     12.0577                 1.0377                 1.0375
 Frc consts  --     21.1812                 5.6074                 5.6089
 IR Inten    --    164.6794                26.4949                12.7894

                     61                     62                     63
                      A                      A                      A
 Frequencies --   3037.1738              3084.4485              3089.1216
 Red. masses --      1.0379                 1.1018                 1.1012
 Frc consts  --      5.6407                 6.1761                 6.1916
 IR Inten    --     37.6443                13.9856                16.5122

                     64                     65                     66
                      A                      A                      A
 Frequencies --   3098.1190              3111.7341              3121.0113
 Red. masses --      1.1010                 1.0995                 1.1005
 Frc consts  --      6.2265                 6.2729                 6.3157
 IR Inten    --     42.7285                24.6554                21.4449

                     67                     68                     69
                      A                      A                      A
 Frequencies --   3123.5247              3164.5967              3175.4006
 Red. masses --      1.0972                 1.0858                 1.0900
 Frc consts  --      6.3068                 6.4068                 6.4758
 IR Inten    --     30.3759                 0.1263                11.9259

                     70                     71                     72
                      A                      A                      A
 Frequencies --   3187.2929              3202.8382              3221.2313
 Red. masses --      1.0953                 1.0931                 1.0907
 Frc consts  --      6.5560                 6.6064                 6.6680
 IR Inten    --     17.9604                 6.2888                 7.1120

 - Thermochemistry -
 -------------------
 Temperature   298.150 Kelvin.  Pressure   1.00000 Atm.
 Atom     1 has atomic number  6 and mass  12.00000

 Molecular mass:   162.10447 amu.
 Principal axes and moments of inertia in atomic units:
                           1         2         3
     Eigenvalues --   939.459262976.042823468.91417
           X            0.99993  -0.01165   0.00130
           Y            0.01163   0.99976   0.01842
           Z           -0.00151  -0.01841   0.99983
 This molecule is an asymmetric top.
 Rotational symmetry number  1.
 Warning -- assumption of classical behavior for rotation
           may cause significant error
 Rotational temperatures (Kelvin)      0.09220     0.02910     0.02497
 Rotational constants (GHZ):           1.92104     0.60642     0.52026
 Zero-point vibrational energy     581541.7 (Joules/Mol)
                                  138.99181 (Kcal/Mol)
 Warning -- explicit consideration of  17 degrees of freedom as
           vibrations may cause significant error
 Vibrational temperatures:     41.19   115.31   182.64   246.68   257.71
          (Kelvin)            310.95   363.63   379.22   410.61   440.58
                              524.71   555.18   586.67   601.96   650.10
                              771.86   852.86   911.81  1000.79  1012.79
                             1042.87  1164.49  1180.31  1240.75  1346.40
                             1352.15  1364.11  1387.43  1391.58  1435.20
                             1457.08  1463.53  1497.88  1506.40  1522.31
                             1594.18  1703.06  1711.22  1741.80  1752.60
                             1780.68  1845.94  1914.95  1943.37  2014.73
                             2019.21  2062.13  2119.59  2127.24  2138.65
                             2145.97  2161.79  2164.00  2185.39  2189.76
                             2325.23  2353.78  2484.34  4357.31  4358.27
                             4369.81  4437.83  4444.55  4457.50  4477.09
                             4490.43  4494.05  4553.14  4568.69  4585.80
                             4608.16  4634.63

 Zero-point correction=                           0.221498 (Hartree/Particle)
 Thermal correction to Energy=                    0.233402
 Thermal correction to Enthalpy=                  0.234346
 Thermal correction to Gibbs Free Energy=         0.183611
 Sum of electronic and zero-point Energies=           -502.743864
 Sum of electronic and thermal Energies=              -502.731960
 Sum of electronic and thermal Enthalpies=            -502.731015
 Sum of electronic and thermal Free Energies=         -502.781750

                     E (Thermal)             CV                S
                      KCal/Mol        Cal/Mol-Kelvin    Cal/Mol-Kelvin
 Total                  146.462             45.954            106.780
 Electronic               0.000              0.000              0.000
 Translational            0.889              2.981             41.158
 Rotational               0.889              2.981             30.651
 Vibrational            144.684             39.992             34.971
 Vibration     1          0.593              1.984              5.922
 Vibration     2          0.600              1.963              3.887
 Vibration     3          0.611              1.926              2.992
 Vibration     4          0.626              1.878              2.419
 Vibration     5          0.629              1.868              2.338
 Vibration     6          0.645              1.816              1.991
 Vibration     7          0.664              1.758              1.711
 Vibration     8          0.670              1.740              1.638
 Vibration     9          0.683              1.701              1.501
 Vibration    10          0.697              1.662              1.383
 Vibration    11          0.738              1.545              1.102
 Vibration    12          0.755              1.500              1.016
 Vibration    13          0.772              1.453              0.935
 Vibration    14          0.781              1.430              0.897
 Vibration    15          0.811              1.357              0.790
 Vibration    16          0.891              1.169              0.573
 Vibration    17          0.950              1.047              0.462

 Optimization completed.
    -- Stationary point found.
 Normal termination of Gaussian 09 at Thu Sep 12 14:51:44 2024.
