 Gaussian 09, Revision D.01,
 Gaussian 09:  ES64L-G09RevD.01 24-Apr-2013

 ----------------------------------------------------------------------
 # opt freq=noraman b3lyp/6-311+g(d,p) geom=connectivity pop=(hirshfeld
 ,chelpg,mbs,npa)
 ----------------------------------------------------------------------

 -------------------
 Title Card Required
 -------------------
 Symbolic Z-matrix:
 Charge =  0 Multiplicity = 1

 SCF Done:  E(RB3LYP) =  -709.170109609     A.U. after   13 cycles
 SCF Done:  E(RB3LYP) =  -709.173268327     A.U. after   12 cycles
 SCF Done:  E(RB3LYP) =  -709.173549481     A.U. after   11 cycles
 SCF Done:  E(RB3LYP) =  -709.173590714     A.U. after   11 cycles
 SCF Done:  E(RB3LYP) =  -709.173593361     A.U. after    9 cycles
 Optimization completed.
    -- Stationary point found.
 Normal termination of Gaussian 09 at Tue Dec 20 17:37:17 2022.

 ----------------------------------------------------------------------
 #N Geom=AllCheck Guess=TCheck SCRF=Check GenChk RB3LYP/6-311+G(d,p) Fr
 eq
 ----------------------------------------------------------------------

 Structure from the checkpoint file:  "benzl_methylthioether.chk"
 -------------------
 Title Card Required
 -------------------
 Charge =  0 Multiplicity = 1

                         Standard orientation:
 ---------------------------------------------------------------------
 Center     Atomic      Atomic             Coordinates (Angstroms)
 Number     Number       Type             X           Y           Z
 ---------------------------------------------------------------------
      1         16           0       -2.080282   -0.000250   -0.683966
      2          6           0       -3.719501    0.000047    0.120424
      3          1           0       -4.462545   -0.000283   -0.677906
      4          1           0       -3.860049   -0.893471    0.731988
      5          1           0       -3.860078    0.894050    0.731273
      6          6           0       -1.007712    0.000435    0.821947
      7          1           0       -1.249860   -0.886326    1.412493
      8          1           0       -1.249805    0.887760    1.411662
      9          6           0        0.446109    0.000212    0.431807
     10          6           0        1.133469    1.203510    0.239502
     11          6           0        1.133190   -1.203312    0.239867
     12          6           0        2.477096    1.204976   -0.128096
     13          1           0        0.610758    2.144249    0.378610
     14          6           0        2.476811   -1.205203   -0.127729
     15          1           0        0.610254   -2.143884    0.379256
     16          6           0        3.153040   -0.000218   -0.312573
     17          1           0        2.996056    2.146552   -0.269192
     18          1           0        2.995554   -2.146940   -0.268544
     19          1           0        4.199215   -0.000384   -0.597093
 ---------------------------------------------------------------------

 SCF Done:  E(RB3LYP) =  -709.173593361     A.U. after    1 cycles

 The electronic state is 1-A.
 Alpha  occ. eigenvalues --  -88.83978 -10.20622 -10.19613 -10.19132 -10.17946
 Alpha  occ. eigenvalues --  -10.17935 -10.17887 -10.17876 -10.17837  -7.92558
 Alpha  occ. eigenvalues --   -5.88979  -5.88606  -5.87878  -0.86791  -0.80869
 Alpha  occ. eigenvalues --   -0.76188  -0.75293  -0.69699  -0.61817  -0.61398
 Alpha  occ. eigenvalues --   -0.58346  -0.51960  -0.47615  -0.46585  -0.43830
 Alpha  occ. eigenvalues --   -0.43540  -0.43114  -0.42790  -0.40335  -0.39524
 Alpha  occ. eigenvalues --   -0.36601  -0.34920  -0.34746  -0.31927  -0.26167
 Alpha  occ. eigenvalues --   -0.25349  -0.22471
 Alpha virt. eigenvalues --   -0.02533  -0.01839  -0.00128   0.00154   0.01470
 Alpha virt. eigenvalues --    0.02105   0.03086   0.04080   0.04156   0.05064
 Alpha virt. eigenvalues --    0.05857   0.06228   0.06475   0.07161   0.07484

 Mulliken charges:
               1
     1  S    0.086676
     2  C   -0.657037
     3  H    0.174788
     4  H    0.169452
     5  H    0.169448
     6  C   -0.615633
     7  H    0.165729
     8  H    0.165724
     9  C    1.202603
    10  C   -0.437882
    11  C   -0.438419
    12  C   -0.247916
    13  H    0.119684
    14  C   -0.247873
    15  H    0.119702
    16  C   -0.107295
    17  H    0.126206
    18  H    0.126206
    19  H    0.125840
 Sum of Mulliken charges =   0.00000

 Dipole moment (field-independent basis, Debye):
    X=             -0.4199    Y=              0.0006    Z=              1.4577  Tot=              1.5170
 Quadrupole moment (field-independent basis, Debye-Ang):
   XX=            -53.8167   YY=            -59.2222   ZZ=            -66.1745
   XY=             -0.0012   XZ=             -4.4602   YZ=             -0.0006

  Exact polarizability: 156.278   0.000 108.390  -7.273  -0.002  80.682
 Approx polarizability: 210.718   0.000 181.339 -14.435  -0.004 126.131

 ESP charges:
               1
     1  S   -0.242291
     2  C   -0.045638
     3  H    0.076861
     4  H    0.045631
     5  H    0.045607
     6  C   -0.035924
     7  H    0.056896
     8  H    0.057279
     9  C    0.126916
    10  C   -0.128697
    11  C   -0.127200
    12  C   -0.081573
    13  H    0.084637
    14  C   -0.084025
    15  H    0.084568
    16  C   -0.082934
    17  H    0.084566
    18  H    0.085318
    19  H    0.080004
 Sum of ESP charges =   0.00000

 Summary of Natural Population Analysis:

                                       Natural Population
                Natural  -----------------------------------------------
    Atom  No    Charge         Core      Valence    Rydberg      Total
 -----------------------------------------------------------------------
      S    1    0.18320      9.99932     5.77551    0.04198    15.81680
      C    2   -0.71247      1.99929     4.70212    0.01106     6.71247
      H    3    0.22174      0.00000     0.77690    0.00136     0.77826
      H    4    0.20226      0.00000     0.79537    0.00237     0.79774
      H    5    0.20226      0.00000     0.79537    0.00237     0.79774
      C    6   -0.50142      1.99913     4.48382    0.01848     6.50142
      H    7    0.20943      0.00000     0.78799    0.00257     0.79057
      H    8    0.20943      0.00000     0.78800    0.00257     0.79057
      C    9   -0.05699      1.99902     4.03922    0.01875     6.05699
      C   10   -0.19352      1.99905     4.17623    0.01824     6.19352
      C   11   -0.19352      1.99905     4.17623    0.01824     6.19352
      C   12   -0.19932      1.99916     4.18178    0.01837     6.19932
      H   13    0.20684      0.00000     0.79134    0.00182     0.79316
      C   14   -0.19932      1.99916     4.18178    0.01837     6.19932
      H   15    0.20684      0.00000     0.79134    0.00182     0.79316
      C   16   -0.20439      1.99916     4.18714    0.01809     6.20439
      H   17    0.20632      0.00000     0.79212    0.00155     0.79368
      H   18    0.20633      0.00000     0.79212    0.00155     0.79367
      H   19    0.20629      0.00000     0.79234    0.00137     0.79371
 =======================================================================
   * Total *    0.00000     25.99232    47.80673    0.20094    74.00000

                      1                      2                      3
                      A                      A                      A
 Frequencies --     32.9993                54.0563                88.5806
 Red. masses --      3.4394                 3.5107                 4.6769
 Frc consts  --      0.0022                 0.0060                 0.0216
 IR Inten    --      0.3828                 2.2715                 1.6289

                      4                      5                      6
                      A                      A                      A
 Frequencies --    170.6118               209.5942               257.7338
 Red. masses --      1.0640                 3.4953                 5.2276
 Frc consts  --      0.0182                 0.0905                 0.2046
 IR Inten    --      0.3315                 0.1529                 0.2441

                      7                      8                      9
                      A                      A                      A
 Frequencies --    338.0526               412.5588               485.6829
 Red. masses --      2.2980                 2.8636                 3.5863
 Frc consts  --      0.1547                 0.2872                 0.4984
 IR Inten    --      0.4073                 0.0004                 6.1791

                     10                     11                     12
                      A                      A                      A
 Frequencies --    575.5033               635.5249               689.8480
 Red. masses --      5.1819                 6.3202                 4.4080
 Frc consts  --      1.0112                 1.5040                 1.2360
 IR Inten    --      2.4265                 0.0398                12.9022

                     13                     14                     15
                      A                      A                      A
 Frequencies --    709.0451               712.0103               788.5432
 Red. masses --      1.6550                 4.6036                 2.2210
 Frc consts  --      0.4902                 1.3751                 0.8137
 IR Inten    --     52.4804                10.1938                12.1120

                     16                     17                     18
                      A                      A                      A
 Frequencies --    820.2701               853.2210               901.3516
 Red. masses --      4.2028                 1.2502                 1.4548
 Frc consts  --      1.6661                 0.5362                 0.6963
 IR Inten    --      1.0160                 0.0316                 0.0495

                     19                     20                     21
                      A                      A                      A
 Frequencies --    928.6443               975.8960               983.1316
 Red. masses --      1.4086                 1.2191                 1.3693
 Frc consts  --      0.7157                 0.6841                 0.7798
 IR Inten    --      0.4974                 1.6072                 0.0066

                     22                     23                     24
                      A                      A                      A
 Frequencies --    989.9561              1003.0108              1017.9873
 Red. masses --      1.3738                 1.2935                 6.1875
 Frc consts  --      0.7932                 0.7667                 3.7779
 IR Inten    --      5.4605                 0.0986                 0.1491

                     25                     26                     27
                      A                      A                      A
 Frequencies --   1048.9948              1093.4759              1151.3164
 Red. masses --      2.2019                 1.5214                 1.1173
 Frc consts  --      1.4276                 1.0718                 0.8726
 IR Inten    --      4.9270                 7.0238                 0.4292

                     28                     29                     30
                      A                      A                      A
 Frequencies --   1182.1066              1202.4649              1225.6632
 Red. masses --      1.1078                 1.1347                 2.4178
 Frc consts  --      0.9121                 0.9667                 2.1400
 IR Inten    --      0.0010                 0.3098                 2.1969

                     31                     32                     33
                      A                      A                      A
 Frequencies --   1273.8674              1339.3817              1357.4962
 Red. masses --      1.4082                 5.2342                 1.3085
 Frc consts  --      1.3464                 5.5324                 1.4206
 IR Inten    --     22.5138                 0.0762                 0.4654

                     34                     35                     36
                      A                      A                      A
 Frequencies --   1360.2221              1466.3527              1481.2884
 Red. masses --      1.1604                 1.0530                 1.0566
 Frc consts  --      1.2649                 1.3340                 1.3660
 IR Inten    --      4.9779                10.6009                10.7036

                     37                     38                     39
                      A                      A                      A
 Frequencies --   1483.0759              1489.2099              1525.5454
 Red. masses --      2.1794                 1.1080                 2.2445
 Frc consts  --      2.8243                 1.4478                 3.0777
 IR Inten    --      4.7279                 1.7171                10.6549

                     40                     41                     42
                      A                      A                      A
 Frequencies --   1623.3053              1643.6758              3029.5172
 Red. masses --      5.5335                 5.6141                 1.0308
 Frc consts  --      8.5912                 8.9363                 5.5740
 IR Inten    --      0.7898                 3.1969                48.8141

                     43                     44                     45
                      A                      A                      A
 Frequencies --   3037.3350              3084.2660              3103.8892
 Red. masses --      1.0556                 1.1093                 1.1076
 Frc consts  --      5.7378                 6.2173                 6.2870
 IR Inten    --     20.9209                13.8981                11.0626

                     46                     47                     48
                      A                      A                      A
 Frequencies --   3125.8557              3157.9925              3161.0179
 Red. masses --      1.1024                 1.0855                 1.0876
 Frc consts  --      6.3465                 6.3783                 6.4031
 IR Inten    --      7.6243                 4.5304                 1.2258

                     49                     50                     51
                      A                      A                      A
 Frequencies --   3170.5000              3179.0880              3189.5024
 Red. masses --      1.0907                 1.0942                 1.0981
 Frc consts  --      6.4597                 6.5157                 6.5819
 IR Inten    --      9.2496                29.5350                14.2131

 - Thermochemistry -
 -------------------
 Temperature   298.150 Kelvin.  Pressure   1.00000 Atm.
 Atom     1 has atomic number 16 and mass  31.97207

 Molecular mass:   138.05032 amu.
 Principal axes and moments of inertia in atomic units:
                           1         2         3
     Eigenvalues --   449.672512645.489732848.33510
           X            0.99989  -0.00001  -0.01454
           Y            0.00001   1.00000  -0.00002
           Z            0.01454   0.00002   0.99989
 This molecule is an asymmetric top.
 Rotational symmetry number  1.
 Warning -- assumption of classical behavior for rotation
           may cause significant error
 Rotational temperatures (Kelvin)      0.19262     0.03274     0.03041
 Rotational constants (GHZ):           4.01346     0.68220     0.63361
 Zero-point vibrational energy     411636.3 (Joules/Mol)
                                   98.38344 (Kcal/Mol)
 Warning -- explicit consideration of  10 degrees of freedom as
           vibrations may cause significant error
 Vibrational temperatures:     47.48    77.77   127.45   245.47   301.56
          (Kelvin)            370.82   486.38   593.58   698.79   828.02
                              914.38   992.54  1020.16  1024.42  1134.54
                             1180.18  1227.59  1296.84  1336.11  1404.09
                             1414.51  1424.32  1443.11  1464.65  1509.27
                             1573.27  1656.49  1700.79  1730.08  1763.45
                             1832.81  1927.07  1953.13  1957.05  2109.75
                             2131.24  2133.81  2142.64  2194.92  2335.57
                             2364.88  4358.79  4370.04  4437.57  4465.80
                             4497.40  4543.64  4547.99  4561.64  4573.99
                             4588.98

 Zero-point correction=                           0.156784 (Hartree/Particle)
 Thermal correction to Energy=                    0.165964
 Thermal correction to Enthalpy=                  0.166908
 Thermal correction to Gibbs Free Energy=         0.120884
 Sum of electronic and zero-point Energies=           -709.016809
 Sum of electronic and thermal Energies=              -709.007630
 Sum of electronic and thermal Enthalpies=            -709.006686
 Sum of electronic and thermal Free Energies=         -709.052709

                     E (Thermal)             CV                S
                      KCal/Mol        Cal/Mol-Kelvin    Cal/Mol-Kelvin
 Total                  104.144             33.380             96.865
 Electronic               0.000              0.000              0.000
 Translational            0.889              2.981             40.679
 Rotational               0.889              2.981             29.606
 Vibrational            102.366             27.418             26.579
 Vibration     1          0.594              1.983              5.640
 Vibration     2          0.596              1.976              4.663
 Vibration     3          0.601              1.957              3.691
 Vibration     4          0.626              1.879              2.429
 Vibration     5          0.642              1.826              2.047
 Vibration     6          0.667              1.750              1.677
 Vibration     7          0.718              1.599              1.221
 Vibration     8          0.776              1.443              0.918
 Vibration     9          0.842              1.282              0.695
 Vibration    10          0.932              1.084              0.494

 Optimization completed.
    -- Stationary point found.
 Normal termination of Gaussian 09 at Tue Dec 20 17:39:24 2022.
