 Gaussian 09, Revision D.01,
 Gaussian 09:  ES64L-G09RevD.01 24-Apr-2013

 ---------------------------------------------------------------------
 # b3lyp/6-311+g(d,p) geom=connectivity pop=(hirshfeld,chelpg,mbs,npa)
 ---------------------------------------------------------------------

 --------
 Table6_6
 --------
 Symbolic Z-matrix:
 Charge =  0 Multiplicity = 1

                         Standard orientation:
 ---------------------------------------------------------------------
 Center     Atomic      Atomic             Coordinates (Angstroms)
 Number     Number       Type             X           Y           Z
 ---------------------------------------------------------------------
      1          6           0       -2.621319    0.467860   -0.000356
      2          6           0       -2.534731   -0.893280    0.000319
      3          6           0       -1.142281   -1.196077   -0.000012
      4          6           0       -0.487411    0.005129    0.000173
      5          8           0       -1.391097    1.028077   -0.000272
      6          1           0       -3.450534    1.155533   -0.000616
      7          1           0       -3.359255   -1.588056    0.000654
      8          1           0       -0.675169   -2.167087   -0.000026
      9          6           0        0.931417    0.375501    0.000183
     10          8           0        1.360795    1.504021    0.000393
     11          8           0        1.707920   -0.733278   -0.000009
     12          6           0        3.127204   -0.497477   -0.000284
     13          1           0        3.421821    0.060841    0.889427
     14          1           0        3.583832   -1.484700   -0.001599
     15          1           0        3.421082    0.062969   -0.888869
 ---------------------------------------------------------------------

 SCF Done:  E(RB3LYP) =  -458.034551654     A.U. after   14 cycles

 The electronic state is 1-A.
 Alpha  occ. eigenvalues --  -19.20946 -19.17563 -19.11664 -10.31290 -10.24566
 Alpha  occ. eigenvalues --  -10.24525 -10.23129 -10.19769 -10.19212  -1.13964
 Alpha  occ. eigenvalues --   -1.11389  -1.02897  -0.82674  -0.79261  -0.73366
 Alpha  occ. eigenvalues --   -0.63583  -0.62173  -0.57050  -0.55882  -0.49837
 Alpha  occ. eigenvalues --   -0.49818  -0.48068  -0.47124  -0.44425  -0.42920
 Alpha  occ. eigenvalues --   -0.42495  -0.40600  -0.39625  -0.37199  -0.31747
 Alpha  occ. eigenvalues --   -0.30407  -0.29224  -0.25550
 Alpha virt. eigenvalues --   -0.05729   0.00090   0.01038   0.01710   0.02383
 Alpha virt. eigenvalues --    0.03089   0.04210   0.04275   0.05025   0.05978
 Alpha virt. eigenvalues --    0.06263   0.07502   0.07961   0.09940   0.10033

 Mulliken charges:
               1
     1  C    0.000633
     2  C   -0.252198
     3  C   -0.178087
     4  C   -0.120288
     5  O   -0.060807
     6  H    0.141592
     7  H    0.137191
     8  H    0.144004
     9  C    0.316611
    10  O   -0.275409
    11  O   -0.170806
    12  C   -0.150291
    13  H    0.158220
    14  H    0.151403
    15  H    0.158234
 Sum of Mulliken charges =   0.00000

 Dipole moment (field-independent basis, Debye):
    X=             -0.8514    Y=             -2.7415    Z=             -0.0009  Tot=              2.8707
 Quadrupole moment (field-independent basis, Debye-Ang):
   XX=            -37.8185   YY=            -55.0768   ZZ=            -53.1554
   XY=             -3.4887   XZ=             -0.0019   YZ=             -0.0020

 ESP charges:
               1
     1  C    0.064706
     2  C   -0.161702
     3  C   -0.048917
     4  C   -0.070582
     5  O   -0.175450
     6  H    0.115991
     7  H    0.114116
     8  H    0.103499
     9  C    0.809449
    10  O   -0.560864
    11  O   -0.455553
    12  C    0.107520
    13  H    0.049488
    14  H    0.058783
    15  H    0.049517
 Sum of ESP charges =   0.00000

 Summary of Natural Population Analysis:

                                       Natural Population
                Natural  -----------------------------------------------
    Atom  No    Charge         Core      Valence    Rydberg      Total
 -----------------------------------------------------------------------
      C    1    0.15235      1.99909     3.82218    0.02638     5.84765
      C    2   -0.30888      1.99918     4.29375    0.01595     6.30888
      C    3   -0.22946      1.99908     4.21502    0.01536     6.22946
      C    4    0.17902      1.99885     3.79500    0.02713     5.82098
      O    5   -0.42774      1.99972     6.41247    0.01555     8.42774
      H    6    0.20315      0.00000     0.79546    0.00139     0.79685
      H    7    0.22744      0.00000     0.77118    0.00138     0.77256
      H    8    0.23601      0.00000     0.76244    0.00155     0.76399
      C    9    0.75168      1.99927     3.20322    0.04583     5.24832
      O   10   -0.57801      1.99975     6.56640    0.01186     8.57801
      O   11   -0.55269      1.99973     6.53894    0.01401     8.55269
      C   12   -0.21440      1.99925     4.19891    0.01623     6.21440
      H   13    0.18732      0.00000     0.81081    0.00186     0.81268
      H   14    0.18683      0.00000     0.81205    0.00112     0.81317
      H   15    0.18736      0.00000     0.81077    0.00187     0.81264
 =======================================================================
   * Total *    0.00000     17.99393    47.80861    0.19747    66.00000

 Normal termination of Gaussian 09 at Fri Jul 23 17:36:22 2021.
