 Gaussian 09, Revision D.01,
 Gaussian 09:  ES64L-G09RevD.01 24-Apr-2013

 ---------------------------------------------------------------------
 # b3lyp/6-311+g(d,p) geom=connectivity pop=(hirshfeld,chelpg,mbs,npa)
 ---------------------------------------------------------------------

 --------
 Chart8_1
 --------
 Symbolic Z-matrix:
 Charge =  0 Multiplicity = 1

                         Standard orientation:
 ---------------------------------------------------------------------
 Center     Atomic      Atomic             Coordinates (Angstroms)
 Number     Number       Type             X           Y           Z
 ---------------------------------------------------------------------
      1          6           0        2.659579   -1.455483    0.401785
      2          6           0        1.358034   -1.527741   -0.088373
      3          6           0        0.660855   -0.384101   -0.503603
      4          6           0        1.348335    0.824299   -0.393791
      5          6           0        2.643354    0.932567    0.086181
      6          6           0        3.306350   -0.223687    0.491033
      7          1           0        3.168877   -2.360897    0.710778
      8          1           0        0.863435   -2.491021   -0.157775
      9          1           0        4.319795   -0.159778    0.869100
     10          6           0       -0.752206   -0.445298   -1.016309
     11          1           0       -0.899583   -1.372971   -1.578875
     12          1           0       -0.943358    0.380421   -1.707322
     13         14           0       -2.089487   -0.391006    0.348642
     14          1           0       -1.915171   -1.609142    1.193205
     15          6           0       -3.792297   -0.445356   -0.463860
     16          1           0       -3.909400   -1.336282   -1.087701
     17          1           0       -4.584800   -0.462939    0.290164
     18          1           0       -3.956881    0.431291   -1.097926
     19          6           0       -1.905640    1.138431    1.431936
     20          1           0       -0.923579    1.170893    1.910977
     21          1           0       -2.023008    2.056216    0.848755
     22          1           0       -2.662047    1.142274    2.222509
     23          9           0        0.716548    1.966229   -0.788992
     24          1           0        3.111421    1.908169    0.134064
 ---------------------------------------------------------------------

 SCF Done:  E(RB3LYP) =  -740.307302383     A.U. after   14 cycles

 The electronic state is 1-A.
 Alpha  occ. eigenvalues --  -66.08759 -24.68798 -10.25814 -10.19746 -10.18477
 Alpha  occ. eigenvalues --  -10.18390 -10.18324 -10.18031 -10.16783 -10.15258
 Alpha  occ. eigenvalues --  -10.14853  -5.26085  -3.61922  -3.61886  -3.61848
 Alpha  occ. eigenvalues --   -1.22493  -0.87188  -0.78662  -0.75493  -0.71498
 Alpha  occ. eigenvalues --   -0.68783  -0.68454  -0.62542  -0.60509  -0.54406
 Alpha  occ. eigenvalues --   -0.50334  -0.49397  -0.48530  -0.46914  -0.44783
 Alpha  occ. eigenvalues --   -0.43108  -0.42088  -0.41444  -0.41109  -0.40096
 Alpha  occ. eigenvalues --   -0.39678  -0.39306  -0.37427  -0.36853  -0.35439
 Alpha  occ. eigenvalues --   -0.32532  -0.31742  -0.31179  -0.25937  -0.24357
 Alpha virt. eigenvalues --   -0.02463  -0.01253  -0.00450   0.00464   0.01054
 Alpha virt. eigenvalues --    0.01943   0.02266   0.03446   0.04662   0.04981
 Alpha virt. eigenvalues --    0.05306   0.05429   0.05921   0.06468   0.07262

 Mulliken charges:
               1
     1  C   -0.164756
     2  C   -0.583280
     3  C    1.575660
     4  C   -0.897131
     5  C    0.213540
     6  C   -0.234895
     7  H    0.125428
     8  H    0.124209
     9  H    0.130422
    10  C   -0.945727
    11  H    0.178587
    12  H    0.187775
    13  Si   1.105372
    14  H   -0.143148
    15  C   -0.795265
    16  H    0.159634
    17  H    0.161998
    18  H    0.165426
    19  C   -0.844773
    20  H    0.178526
    21  H    0.179693
    22  H    0.161697
    23  F   -0.172398
    24  H    0.133408
 Sum of Mulliken charges =   0.00000

 Dipole moment (field-independent basis, Debye):
    X=             -0.1199    Y=             -0.8785    Z=              0.1495  Tot=              0.8992
 Quadrupole moment (field-independent basis, Debye-Ang):
   XX=            -68.8657   YY=            -74.7126   ZZ=            -77.0091
   XY=             -0.5304   XZ=              2.8800   YZ=              1.4919

 ESP charges:
               1
     1  C   -0.135843
     2  C   -0.150127
     3  C    0.015826
     4  C    0.319357
     5  C   -0.231870
     6  C   -0.066852
     7  H    0.102097
     8  H    0.117803
     9  H    0.095559
    10  C   -0.238942
    11  H    0.048982
    12  H    0.059612
    13  Si   0.788179
    14  H   -0.243520
    15  C   -0.462755
    16  H    0.087380
    17  H    0.095359
    18  H    0.084848
    19  C   -0.380106
    20  H    0.048521
    21  H    0.085025
    22  H    0.070889
    23  F   -0.251104
    24  H    0.141685
 Sum of ESP charges =   0.00000

 Summary of Natural Population Analysis:

                                       Natural Population
                Natural  -----------------------------------------------
    Atom  No    Charge         Core      Valence    Rydberg      Total
 -----------------------------------------------------------------------
      C    1   -0.21116      1.99916     4.19387    0.01813     6.21116
      C    2   -0.19075      1.99908     4.17490    0.01677     6.19075
      C    3   -0.08594      1.99894     4.06765    0.01935     6.08594
      C    4    0.40086      1.99834     3.57517    0.02562     5.59914
      C    5   -0.26066      1.99904     4.24366    0.01796     6.26066
      C    6   -0.20151      1.99918     4.18466    0.01766     6.20151
      H    7    0.20828      0.00000     0.79022    0.00150     0.79172
      H    8    0.20719      0.00000     0.79120    0.00160     0.79281
      H    9    0.20876      0.00000     0.78978    0.00146     0.79124
      C   10   -0.83824      1.99924     4.82041    0.01860     6.83824
      H   11    0.23404      0.00000     0.76461    0.00135     0.76596
      H   12    0.24329      0.00000     0.75509    0.00162     0.75671
     Si   13    1.37009      9.99859     2.60118    0.03015    12.62991
      H   14   -0.19021      0.00000     1.18616    0.00405     1.19021
      C   15   -1.06643      1.99936     5.05727    0.00979     7.06643
      H   16    0.22864      0.00000     0.77046    0.00091     0.77136
      H   17    0.23052      0.00000     0.76861    0.00088     0.76948
      H   18    0.22768      0.00000     0.77121    0.00111     0.77232
      C   19   -1.06936      1.99936     5.05993    0.01007     7.06936
      H   20    0.23545      0.00000     0.76353    0.00102     0.76455
      H   21    0.23197      0.00000     0.76689    0.00114     0.76803
      H   22    0.22864      0.00000     0.77046    0.00090     0.77136
      F   23   -0.36427      1.99993     7.35641    0.00794     9.36427
      H   24    0.22313      0.00000     0.77521    0.00167     0.77687
 =======================================================================
   * Total *    0.00000     29.99022    59.79853    0.21124    90.00000

 Normal termination of Gaussian 09 at Fri Jul 23 17:27:54 2021.
