 Gaussian 09, Revision D.01,
 Gaussian 09:  ES64L-G09RevD.01 24-Apr-2013

 ---------------------------------------------------------------------
 # b3lyp/6-311+g(d,p) geom=connectivity pop=(hirshfeld,chelpg,mbs,npa)
 ---------------------------------------------------------------------

 --------
 Chart4_8
 --------
 Symbolic Z-matrix:
 Charge =  0 Multiplicity = 1

                         Standard orientation:
 ---------------------------------------------------------------------
 Center     Atomic      Atomic             Coordinates (Angstroms)
 Number     Number       Type             X           Y           Z
 ---------------------------------------------------------------------
      1          6           0       -1.201901    0.309617   -0.029861
      2          6           0       -1.206236    1.704578   -0.028430
      3          6           0       -0.000001    2.398132    0.000000
      4          6           0        1.206237    1.704558    0.028421
      5          6           0        1.201888    0.309608    0.029835
      6          6           0       -0.000017   -0.394353   -0.000011
      7          1           0       -2.145801    2.241824   -0.054923
      8          1           0        0.000014    3.481271    0.000007
      9          1           0        2.145795    2.241818    0.054911
     10          1           0       -0.000010   -1.476357   -0.000043
     11          6           0        2.507768   -0.442031    0.004279
     12          6           0       -2.507773   -0.442036   -0.004259
     13          9           0        3.493604    0.235320    0.632592
     14          9           0        2.411635   -1.652269    0.594520
     15          9           0        2.933049   -0.659537   -1.265162
     16          9           0       -2.411660   -1.652209   -0.594677
     17          9           0       -3.493683    0.235399   -0.632407
     18          9           0       -2.932922   -0.659704    1.265157
 ---------------------------------------------------------------------

 SCF Done:  E(RB3LYP) =  -906.607822133     A.U. after   13 cycles

 The electronic state is 1-A.
 Alpha  occ. eigenvalues --  -24.72941 -24.72940 -24.72940 -24.72939 -24.72464
 Alpha  occ. eigenvalues --  -24.72463 -10.44831 -10.44831 -10.23572 -10.23571
 Alpha  occ. eigenvalues --  -10.22798 -10.22444 -10.22442 -10.21920  -1.33479
 Alpha  occ. eigenvalues --   -1.33476  -1.24856  -1.24854  -1.24334  -1.24332
 Alpha  occ. eigenvalues --   -0.91708  -0.83416  -0.81039  -0.73718  -0.72870
 Alpha  occ. eigenvalues --   -0.66524  -0.66319  -0.62303  -0.61592  -0.61270
 Alpha  occ. eigenvalues --   -0.61225  -0.60434  -0.55594  -0.53912  -0.51018
 Alpha  occ. eigenvalues --   -0.49183  -0.49172  -0.48949  -0.48579  -0.48105
 Alpha  occ. eigenvalues --   -0.45658  -0.45257  -0.45075  -0.44853  -0.43809
 Alpha  occ. eigenvalues --   -0.43538  -0.43024  -0.43023  -0.41209  -0.39419
 Alpha  occ. eigenvalues --   -0.39222  -0.30653  -0.30400
 Alpha virt. eigenvalues --   -0.07140  -0.06275  -0.00803   0.01548   0.01602
 Alpha virt. eigenvalues --    0.03450   0.03695   0.04036   0.04185   0.05916
 Alpha virt. eigenvalues --    0.06303   0.06689   0.07109   0.07349   0.09274

 Mulliken charges:
               1
     1  C   -0.933922
     2  C   -0.037400
     3  C   -0.208701
     4  C   -0.037186
     5  C   -0.933975
     6  C    0.529545
     7  H    0.154564
     8  H    0.144132
     9  H    0.154564
    10  H    0.162484
    11  C    0.785274
    12  C    0.785232
    13  F   -0.110810
    14  F   -0.107906
    15  F   -0.063595
    16  F   -0.107899
    17  F   -0.110835
    18  F   -0.063566
 Sum of Mulliken charges =   0.00000

 Dipole moment (field-independent basis, Debye):
    X=             -0.0001    Y=              2.9642    Z=              0.0002  Tot=              2.9642
 Quadrupole moment (field-independent basis, Debye-Ang):
   XX=            -88.0475   YY=            -70.1540   ZZ=            -80.8928
   XY=              0.0001   XZ=              0.4214   YZ=             -0.0001

 ESP charges:
               1
     1  C   -0.061689
     2  C   -0.073670
     3  C   -0.065595
     4  C   -0.073667
     5  C   -0.061711
     6  C   -0.054771
     7  H    0.115194
     8  H    0.100301
     9  H    0.115199
    10  H    0.112218
    11  C    0.672417
    12  C    0.672391
    13  F   -0.231953
    14  F   -0.226028
    15  F   -0.240337
    16  F   -0.226036
    17  F   -0.231953
    18  F   -0.240310
 Sum of ESP charges =   0.00000

 Summary of Natural Population Analysis:

                                       Natural Population
                Natural  -----------------------------------------------
    Atom  No    Charge         Core      Valence    Rydberg      Total
 -----------------------------------------------------------------------
      C    1   -0.13849      1.99890     4.12152    0.01807     6.13849
      C    2   -0.15871      1.99908     4.14244    0.01719     6.15871
      C    3   -0.18871      1.99917     4.17231    0.01724     6.18871
      C    4   -0.15871      1.99908     4.14244    0.01719     6.15871
      C    5   -0.13849      1.99890     4.12152    0.01807     6.13849
      C    6   -0.15221      1.99900     4.13580    0.01741     6.15221
      H    7    0.22973      0.00000     0.76869    0.00158     0.77027
      H    8    0.21916      0.00000     0.77947    0.00137     0.78084
      H    9    0.22973      0.00000     0.76869    0.00158     0.77027
      H   10    0.24333      0.00000     0.75470    0.00197     0.75667
      C   11    1.06856      1.99912     2.87197    0.06035     4.93144
      C   12    1.06856      1.99912     2.87197    0.06035     4.93144
      F   13   -0.35479      1.99992     7.34840    0.00647     9.35479
      F   14   -0.35322      1.99992     7.34680    0.00649     9.35322
      F   15   -0.35387      1.99992     7.34754    0.00641     9.35387
      F   16   -0.35322      1.99992     7.34681    0.00649     9.35322
      F   17   -0.35480      1.99992     7.34841    0.00647     9.35480
      F   18   -0.35385      1.99992     7.34752    0.00641     9.35385
 =======================================================================
   * Total *    0.00000     27.99186    77.73700    0.27114   106.00000

 Normal termination of Gaussian 09 at Fri Jul 23 17:24:37 2021.
