 Gaussian 09, Revision D.01,
 Gaussian 09:  ES64L-G09RevD.01 24-Apr-2013

 ---------------------------------------------------------------------
 # b3lyp/6-311+g(d,p) geom=connectivity pop=(hirshfeld,chelpg,mbs,npa)
 ---------------------------------------------------------------------

 --------
 Table5_4
 --------
 Symbolic Z-matrix:
 Charge =  0 Multiplicity = 1

                         Standard orientation:
 ---------------------------------------------------------------------
 Center     Atomic      Atomic             Coordinates (Angstroms)
 Number     Number       Type             X           Y           Z
 ---------------------------------------------------------------------
      1          6           0        1.680526   -0.229513    0.000013
      2          6           0        1.385993    1.101565    0.000000
      3          6           0       -0.019930    1.356390   -0.000011
      4          6           0       -0.785430    0.223142   -0.000024
      5         16           0        0.237054   -1.194579   -0.000007
      6          1           0        2.648379   -0.706632    0.000050
      7          1           0        2.140207    1.877625    0.000012
      8          1           0       -0.450047    2.350359    0.000002
      9          6           0       -2.279606    0.105606    0.000015
     10          1           0       -2.646941   -0.426591   -0.882659
     11          1           0       -2.646898   -0.426424    0.882807
     12          1           0       -2.726881    1.101786   -0.000067
 ---------------------------------------------------------------------

 SCF Done:  E(RB3LYP) =  -592.401771653     A.U. after   13 cycles

 The electronic state is 1-A.
 Alpha  occ. eigenvalues --  -88.87281 -10.20740 -10.19681 -10.18179 -10.17643
 Alpha  occ. eigenvalues --  -10.17352  -7.95921  -5.92206  -5.91838  -5.91522
 Alpha  occ. eigenvalues --   -0.88238  -0.76816  -0.73409  -0.68154  -0.56276
 Alpha  occ. eigenvalues --   -0.53846  -0.50390  -0.43348  -0.43314  -0.40904
 Alpha  occ. eigenvalues --   -0.38903  -0.36966  -0.36787  -0.34159  -0.25435
 Alpha  occ. eigenvalues --   -0.23341
 Alpha virt. eigenvalues --   -0.02188   0.00348   0.00765   0.02316   0.02770
 Alpha virt. eigenvalues --    0.03747   0.04264   0.04948   0.05597   0.05731
 Alpha virt. eigenvalues --    0.07660   0.07671   0.08306   0.08844   0.10950

 Mulliken charges:
               1
     1  C   -0.011674
     2  C   -0.361617
     3  C   -0.022462
     4  C    0.236639
     5  S   -0.213967
     6  H    0.162907
     7  H    0.127996
     8  H    0.120649
     9  C   -0.498713
    10  H    0.156274
    11  H    0.156280
    12  H    0.147688
 Sum of Mulliken charges =   0.00000

 Dipole moment (field-independent basis, Debye):
    X=             -0.4863    Y=              0.5439    Z=              0.0001  Tot=              0.7296
 Quadrupole moment (field-independent basis, Debye-Ang):
   XX=            -37.9802   YY=            -41.9815   ZZ=            -47.0936
   XY=             -0.4441   XZ=              0.0001   YZ=              0.0000

 ESP charges:
               1
     1  C   -0.229270
     2  C   -0.047859
     3  C   -0.196424
     4  C    0.048309
     5  S   -0.020640
     6  H    0.172590
     7  H    0.086366
     8  H    0.127820
     9  C   -0.064241
    10  H    0.045882
    11  H    0.045875
    12  H    0.031592
 Sum of ESP charges =   0.00000

 Summary of Natural Population Analysis:

                                       Natural Population
                Natural  -----------------------------------------------
    Atom  No    Charge         Core      Valence    Rydberg      Total
 -----------------------------------------------------------------------
      C    1   -0.39336      1.99911     4.37303    0.02122     6.39336
      C    2   -0.25251      1.99910     4.23447    0.01895     6.25251
      C    3   -0.26614      1.99894     4.24912    0.01809     6.26614
      C    4   -0.19626      1.99903     4.17507    0.02216     6.19626
      S    5    0.40092      9.99884     5.55619    0.04404    15.59908
      H    6    0.22681      0.00000     0.77170    0.00150     0.77319
      H    7    0.21797      0.00000     0.78041    0.00162     0.78203
      H    8    0.21597      0.00000     0.78233    0.00170     0.78403
      C    9   -0.60016      1.99926     4.58920    0.01170     6.60016
      H   10    0.21501      0.00000     0.78360    0.00138     0.78499
      H   11    0.21502      0.00000     0.78360    0.00138     0.78498
      H   12    0.21674      0.00000     0.78194    0.00133     0.78326
 =======================================================================
   * Total *    0.00000     19.99428    31.86065    0.14507    52.00000

 Normal termination of Gaussian 09 at Fri Jul 23 17:34:26 2021.
