 Gaussian 09, Revision D.01,
 Gaussian 09:  ES64L-G09RevD.01 24-Apr-2013

 ----------------------------------------------------------------------
 # opt freq=noraman b3lyp/6-311+g(d,p) pop=(npa,hirshfeld,chelpg,mbs) g
 eom=connectivity
 ----------------------------------------------------------------------

 -------------------
 Title Card Required
 -------------------
 Symbolic Z-matrix:
 Charge =  0 Multiplicity = 1

 SCF Done:  E(RB3LYP) =  -437.919086939     A.U. after   14 cycles
 SCF Done:  E(RB3LYP) =  -437.932013554     A.U. after   13 cycles
 SCF Done:  E(RB3LYP) =  -437.932640601     A.U. after   12 cycles
 SCF Done:  E(RB3LYP) =  -437.932662399     A.U. after   11 cycles
 SCF Done:  E(RB3LYP) =  -437.932151712     A.U. after   12 cycles
 SCF Done:  E(RB3LYP) =  -437.932663004     A.U. after    7 cycles
 SCF Done:  E(RB3LYP) =  -437.932663579     A.U. after   10 cycles
 Optimization completed.
    -- Stationary point found.
 Normal termination of Gaussian 09 at Tue Apr 23 13:07:42 2024.

 ----------------------------------------------------------------------
 #N Geom=AllCheck Guess=TCheck SCRF=Check GenChk RB3LYP/6-311+G(d,p) Fr
 eq
 ----------------------------------------------------------------------

 Structure from the checkpoint file:  "6.chk"
 -------------------
 Title Card Required
 -------------------
 Charge =  0 Multiplicity = 1

                         Standard orientation:
 ---------------------------------------------------------------------
 Center     Atomic      Atomic             Coordinates (Angstroms)
 Number     Number       Type             X           Y           Z
 ---------------------------------------------------------------------
      1          6           0        0.171489   -0.817183    0.000001
      2          6           0       -1.089106   -0.221581    0.000001
      3          6           0       -1.205020    1.174950    0.000001
      4          6           0       -0.063786    1.967264    0.000000
      5          6           0        1.199432    1.378366   -0.000001
      6          6           0        1.322024   -0.018491    0.000000
      7          1           0       -2.195576    1.614262    0.000001
      8          1           0       -0.150460    3.047223   -0.000001
      9          1           0        2.092377    1.991364   -0.000001
     10          6           0       -2.301026   -1.081225    0.000003
     11          8           0       -3.434997   -0.662655   -0.000003
     12          1           0       -2.096966   -2.172011   -0.000004
     13          1           0        0.265154   -1.897699    0.000002
     14          6           0        2.618575   -0.625966    0.000000
     15          7           0        3.664279   -1.116958   -0.000001
 ---------------------------------------------------------------------

 SCF Done:  E(RB3LYP) =  -437.932663579     A.U. after    1 cycles

 The electronic state is 1-A.
 Alpha  occ. eigenvalues --  -19.14632 -14.33332 -10.28647 -10.25147 -10.23313
 Alpha  occ. eigenvalues --  -10.23154 -10.22954 -10.22508 -10.22315 -10.22106
 Alpha  occ. eigenvalues --   -1.07675  -0.93598  -0.90944  -0.81829  -0.80785
 Alpha  occ. eigenvalues --   -0.69411  -0.67669  -0.63234  -0.56558  -0.53058
 Alpha  occ. eigenvalues --   -0.52412  -0.49415  -0.47509  -0.46194  -0.44640
 Alpha  occ. eigenvalues --   -0.41696  -0.41386  -0.40514  -0.38262  -0.37148
 Alpha  occ. eigenvalues --   -0.35927  -0.30625  -0.29485  -0.28868
 Alpha virt. eigenvalues --   -0.10384  -0.07585  -0.01899  -0.01135   0.00248
 Alpha virt. eigenvalues --    0.00807   0.01717   0.02847   0.03194   0.03586
 Alpha virt. eigenvalues --    0.04337   0.05045   0.06483   0.06897   0.06897

 Mulliken charges:
               1
     1  C   -1.441662
     2  C    1.136921
     3  C   -0.137471
     4  C   -0.075673
     5  C   -0.294970
     6  C    2.010577
     7  H    0.166650
     8  H    0.145585
     9  H    0.152353
    10  C   -0.036503
    11  O   -0.247659
    12  H    0.109297
    13  H    0.149606
    14  C   -1.463077
    15  N   -0.173973
 Sum of Mulliken charges =   0.00000

 Dipole moment (field-independent basis, Debye):
    X=             -0.8549    Y=              2.0711    Z=              0.0000  Tot=              2.2406
 Quadrupole moment (field-independent basis, Debye-Ang):
   XX=            -85.1167   YY=            -49.5891   ZZ=            -58.8272
   XY=              6.0993   XZ=              0.0000   YZ=              0.0000

  Exact polarizability: 148.223  -5.980 103.853   0.003  -0.005  50.899
 Approx polarizability: 240.136 -17.501 170.132   0.000   0.000  76.730

 ESP charges:
               1
     1  C   -0.204429
     2  C    0.060135
     3  C   -0.044905
     4  C   -0.080293
     5  C   -0.108712
     6  C    0.078290
     7  H    0.102611
     8  H    0.106560
     9  H    0.118824
    10  C    0.392924
    11  O   -0.450681
    12  H    0.009535
    13  H    0.126963
    14  C    0.355938
    15  N   -0.462760
 Sum of ESP charges =   0.00000

 Summary of Natural Population Analysis:

                                       Natural Population
                Natural  -----------------------------------------------
    Atom  No    Charge         Core      Valence    Rydberg      Total
 -----------------------------------------------------------------------
      C    1   -0.11606      1.99902     4.10183    0.01521     6.11606
      C    2   -0.16132      1.99897     4.14581    0.01654     6.16132
      C    3   -0.12959      1.99907     4.11262    0.01790     6.12959
      C    4   -0.19691      1.99916     4.18067    0.01708     6.19691
      C    5   -0.12422      1.99910     4.10958    0.01554     6.12422
      C    6   -0.17980      1.99887     4.16373    0.01720     6.17980
      H    7    0.23410      0.00000     0.76386    0.00204     0.76590
      H    8    0.21996      0.00000     0.77863    0.00141     0.78004
      H    9    0.22538      0.00000     0.77340    0.00121     0.77462
      C   10    0.42036      1.99938     3.54080    0.03946     5.57964
      O   11   -0.51586      1.99977     6.50223    0.01386     8.51586
      H   12    0.11439      0.00000     0.88247    0.00314     0.88561
      H   13    0.22471      0.00000     0.77344    0.00185     0.77529
      C   14    0.28363      1.99924     3.68279    0.03435     5.71637
      N   15   -0.29877      1.99959     5.27874    0.02044     7.29877
 =======================================================================
   * Total *    0.00000     19.99218    47.79059    0.21722    68.00000

                      1                      2                      3
                      A                      A                      A
 Frequencies --     93.3460               134.3253               161.7872
 Red. masses --      6.4104                 9.6038                 5.4850
 Frc consts  --      0.0329                 0.1021                 0.0846
 IR Inten    --     11.7019                11.4088                 0.0158

                      4                      5                      6
                      A                      A                      A
 Frequencies --    231.6788               233.1515               398.1281
 Red. masses --      2.4488                 6.0381                 4.2795
 Frc consts  --      0.0774                 0.1934                 0.3997
 IR Inten    --      7.1505                 3.8041                 1.6358

                      7                      8                      9
                      A                      A                      A
 Frequencies --    418.0795               445.2422               467.3016
 Red. masses --      9.5221                 3.4427                 7.7367
 Frc consts  --      0.9806                 0.4021                 0.9954
 IR Inten    --      0.1777                 5.8296                 0.8871

                     10                     11                     12
                      A                      A                      A
 Frequencies --    569.9125               601.8809               673.5413
 Red. masses --      7.8449                 5.6923                 6.6099
 Frc consts  --      1.5013                 1.2149                 1.7667
 IR Inten    --      4.2753                 1.1243                10.0259

                     13                     14                     15
                      A                      A                      A
 Frequencies --    692.9392               768.4396               820.3661
 Red. masses --      2.2582                 6.2448                 1.4322
 Frc consts  --      0.6389                 2.1726                 0.5679
 IR Inten    --     22.9637                35.9447                34.9531

                     16                     17                     18
                      A                      A                      A
 Frequencies --    915.4648               923.8259               961.1962
 Red. masses --      4.1313                 1.3740                 1.3808
 Frc consts  --      2.0400                 0.6909                 0.7516
 IR Inten    --     12.0722                 7.8552                 0.6877

                     19                     20                     21
                      A                      A                      A
 Frequencies --   1013.5714              1015.6164              1031.0296
 Red. masses --      6.2496                 1.3951                 1.7298
 Frc consts  --      3.7828                 0.8479                 1.0834
 IR Inten    --      0.6958                 0.1127                 1.5965

                     22                     23                     24
                      A                      A                      A
 Frequencies --   1108.5362              1164.9944              1192.4311
 Red. masses --      1.5924                 1.6533                 1.1572
 Frc consts  --      1.1530                 1.3221                 0.9694
 IR Inten    --      6.3614                42.5305                 2.9073

                     25                     26                     27
                      A                      A                      A
 Frequencies --   1257.2825              1314.7360              1347.5751
 Red. masses --      5.0094                 2.0736                 2.6231
 Frc consts  --      4.6655                 2.1118                 2.8066
 IR Inten    --     44.9164                18.9957                 2.7538

                     28                     29                     30
                      A                      A                      A
 Frequencies --   1403.9820              1460.1677              1512.0828
 Red. masses --      1.4050                 2.4365                 2.3563
 Frc consts  --      1.6317                 3.0607                 3.1742
 IR Inten    --     10.5442                 3.8004                 4.6422

                     31                     32                     33
                      A                      A                      A
 Frequencies --   1613.4763              1640.1816              1776.0787
 Red. masses --      5.4837                 5.5661                10.3782
 Frc consts  --      8.4110                 8.8223                19.2883
 IR Inten    --     24.7901                 7.7692               301.8612

                     34                     35                     36
                      A                      A                      A
 Frequencies --   2336.4938              2902.7075              3179.5590
 Red. masses --     12.6782                 1.0841                 1.0915
 Frc consts  --     40.7789                 5.3818                 6.5013
 IR Inten    --     28.9067                93.3372                 1.1011

                     37                     38                     39
                      A                      A                      A
 Frequencies --   3182.7700              3196.0016              3202.8574
 Red. masses --      1.0877                 1.0916                 1.0970
 Frc consts  --      6.4921                 6.5697                 6.6304
 IR Inten    --      1.8341                 0.1065                 4.0583

 - Thermochemistry -
 -------------------
 Temperature   298.150 Kelvin.  Pressure   1.00000 Atm.
 Atom     1 has atomic number  6 and mass  12.00000

 Molecular mass:   131.03711 amu.
 Principal axes and moments of inertia in atomic units:
                           1         2         3
     Eigenvalues --   578.202652166.436422744.63908
           X            0.99996   0.00937   0.00000
           Y           -0.00937   0.99996   0.00000
           Z            0.00000   0.00000   1.00000
 This molecule is an asymmetric top.
 Rotational symmetry number  1.
 Warning -- assumption of classical behavior for rotation
           may cause significant error
 Rotational temperatures (Kelvin)      0.14980     0.03998     0.03156
 Rotational constants (GHZ):           3.12130     0.83305     0.65755
 Zero-point vibrational energy     283292.1 (Joules/Mol)
                                   67.70843 (Kcal/Mol)
 Warning -- explicit consideration of  11 degrees of freedom as
           vibrations may cause significant error
 Vibrational temperatures:    134.30   193.26   232.78   333.33   335.45
          (Kelvin)            572.82   601.52   640.60   672.34   819.98
                              865.97   969.07   996.98  1105.61  1180.32
                             1317.15  1329.18  1382.95  1458.30  1461.24
                             1483.42  1594.93  1676.17  1715.64  1808.95
                             1891.61  1938.86  2020.01  2100.85  2175.55
                             2321.43  2359.85  2555.38  3361.69  4176.34
                             4574.67  4579.29  4598.33  4608.19

 Zero-point correction=                           0.107900 (Hartree/Particle)
 Thermal correction to Energy=                    0.116019
 Thermal correction to Enthalpy=                  0.116963
 Thermal correction to Gibbs Free Energy=         0.074563
 Sum of electronic and zero-point Energies=           -437.824763
 Sum of electronic and thermal Energies=              -437.816645
 Sum of electronic and thermal Enthalpies=            -437.815700
 Sum of electronic and thermal Free Energies=         -437.858100

                     E (Thermal)             CV                S
                      KCal/Mol        Cal/Mol-Kelvin    Cal/Mol-Kelvin
 Total                   72.803             30.051             89.238
 Electronic               0.000              0.000              0.000
 Translational            0.889              2.981             40.524
 Rotational               0.889              2.981             29.621
 Vibrational             71.026             24.089             19.093
 Vibration     1          0.602              1.954              3.589
 Vibration     2          0.613              1.919              2.883
 Vibration     3          0.622              1.889              2.529
 Vibration     4          0.653              1.793              1.866
 Vibration     5          0.654              1.790              1.855
 Vibration     6          0.764              1.474              0.970
 Vibration     7          0.781              1.431              0.899
 Vibration     8          0.805              1.371              0.810
 Vibration     9          0.825              1.323              0.745
 Vibration    10          0.926              1.096              0.504
 Vibration    11          0.960              1.028              0.446

 Optimization completed.
    -- Stationary point found.
 Normal termination of Gaussian 09 at Tue Apr 23 13:08:55 2024.
