 Gaussian 09, Revision D.01,
 Gaussian 09:  ES64L-G09RevD.01 24-Apr-2013

 ----------------------------------------------------------------------
 # opt freq=noraman b3lyp/6-311+g(d,p) pop=(npa,hirshfeld,chelpg,mbs) g
 eom=connectivity
 ----------------------------------------------------------------------

 -------------------
 Title Card Required
 -------------------
 Symbolic Z-matrix:
 Charge =  0 Multiplicity = 1

 SCF Done:  E(RB3LYP) =  -437.923110599     A.U. after   14 cycles
 SCF Done:  E(RB3LYP) =  -437.932267065     A.U. after   13 cycles
 SCF Done:  E(RB3LYP) =  -437.932560732     A.U. after   12 cycles
 SCF Done:  E(RB3LYP) =  -437.932365716     A.U. after   12 cycles
 SCF Done:  E(RB3LYP) =  -437.932243781     A.U. after   13 cycles
 SCF Done:  E(RB3LYP) =  -437.932565252     A.U. after    6 cycles
 SCF Done:  E(RB3LYP) =  -437.932568102     A.U. after   11 cycles
 SCF Done:  E(RB3LYP) =  -437.932573347     A.U. after    9 cycles
 Optimization completed.
    -- Stationary point found.
 Normal termination of Gaussian 09 at Tue Apr 23 11:54:49 2024.

 ----------------------------------------------------------------------
 #N Geom=AllCheck Guess=TCheck SCRF=Check GenChk RB3LYP/6-311+G(d,p) Fr
 eq
 ----------------------------------------------------------------------

 Structure from the checkpoint file:  "3.chk"
 -------------------
 Title Card Required
 -------------------
 Charge =  0 Multiplicity = 1

                         Standard orientation:
 ---------------------------------------------------------------------
 Center     Atomic      Atomic             Coordinates (Angstroms)
 Number     Number       Type             X           Y           Z
 ---------------------------------------------------------------------
      1          6           0       -0.522901    1.354140    0.000000
      2          6           0        0.862415    1.252961    0.000000
      3          6           0        1.460254   -0.015129   -0.000001
      4          6           0        0.665372   -1.174906    0.000003
      5          6           0       -0.715233   -1.061986    0.000005
      6          6           0       -1.317033    0.203256    0.000000
      7          1           0       -0.992816    2.332232   -0.000002
      8          1           0        1.483682    2.139674   -0.000001
      9          1           0        1.140830   -2.147815    0.000004
     10          1           0       -1.347315   -1.941882    0.000005
     11          6           0        2.887293   -0.129362   -0.000002
     12          7           0        4.038952   -0.221190   -0.000001
     13          6           0       -2.796778    0.333939    0.000001
     14          8           0       -3.565887   -0.598795   -0.000007
     15          1           0       -3.170287    1.378996    0.000026
 ---------------------------------------------------------------------

 SCF Done:  E(RB3LYP) =  -437.932573347     A.U. after    2 cycles

 The electronic state is 1-A.
 Alpha  occ. eigenvalues --  -19.14691 -14.33512 -10.28648 -10.25393 -10.23053
 Alpha  occ. eigenvalues --  -10.22821 -10.22659 -10.22656 -10.22570 -10.22087
 Alpha  occ. eigenvalues --   -1.07708  -0.93686  -0.90921  -0.82334  -0.79986
 Alpha  occ. eigenvalues --   -0.71065  -0.66213  -0.61614  -0.59205  -0.53597
 Alpha  occ. eigenvalues --   -0.50769  -0.48619  -0.47265  -0.46438  -0.44542
 Alpha  occ. eigenvalues --   -0.42810  -0.41882  -0.39786  -0.38453  -0.37085
 Alpha  occ. eigenvalues --   -0.35871  -0.30549  -0.29537  -0.28903
 Alpha virt. eigenvalues --   -0.11206  -0.05893  -0.02615  -0.01190   0.00316
 Alpha virt. eigenvalues --    0.00851   0.01575   0.02675   0.02910   0.03506
 Alpha virt. eigenvalues --    0.04476   0.05189   0.06573   0.06957   0.07147

 Mulliken charges:
               1
     1  C   -0.794093
     2  C   -0.317017
     3  C    2.028009
     4  C   -0.422806
     5  C    0.085692
     6  C    0.790091
     7  H    0.142401
     8  H    0.148820
     9  H    0.150046
    10  H    0.165403
    11  C   -1.612116
    12  N   -0.167950
    13  C   -0.056224
    14  O   -0.247811
    15  H    0.107554
 Sum of Mulliken charges =   0.00000

 Dipole moment (field-independent basis, Debye):
    X=             -1.5747    Y=              1.9143    Z=              0.0000  Tot=              2.4788
 Quadrupole moment (field-independent basis, Debye-Ang):
   XX=            -86.9106   YY=            -49.5656   ZZ=            -58.8416
   XY=             -4.4553   XZ=             -0.0001   YZ=              0.0000

  Exact polarizability: 163.599  -0.553  95.216   0.003  -0.003  50.960
 Approx polarizability: 259.897   5.207 163.168   0.000   0.000  76.777

 ESP charges:
               1
     1  C   -0.147751
     2  C   -0.077935
     3  C    0.051678
     4  C   -0.122811
     5  C   -0.044954
     6  C    0.043813
     7  H    0.107022
     8  H    0.114139
     9  H    0.120570
    10  H    0.106329
    11  C    0.351937
    12  N   -0.455756
    13  C    0.394639
    14  O   -0.448808
    15  H    0.007889
 Sum of ESP charges =   0.00000

 Summary of Natural Population Analysis:

                                       Natural Population
                Natural  -----------------------------------------------
    Atom  No    Charge         Core      Valence    Rydberg      Total
 -----------------------------------------------------------------------
      C    1   -0.16138      1.99909     4.14586    0.01644     6.16138
      C    2   -0.15470      1.99910     4.13967    0.01594     6.15470
      C    3   -0.15222      1.99888     4.13621    0.01713     6.15222
      C    4   -0.15185      1.99910     4.13721    0.01554     6.15185
      C    5   -0.14771      1.99907     4.13107    0.01757     6.14771
      C    6   -0.14516      1.99897     4.12922    0.01697     6.14516
      H    7    0.21749      0.00000     0.78066    0.00185     0.78251
      H    8    0.22653      0.00000     0.77212    0.00135     0.77347
      H    9    0.22684      0.00000     0.77184    0.00133     0.77316
      H   10    0.23665      0.00000     0.76135    0.00201     0.76335
      C   11    0.28219      1.99924     3.68446    0.03411     5.71781
      N   12   -0.29301      1.99959     5.27324    0.02018     7.29301
      C   13    0.41735      1.99938     3.54393    0.03934     5.58265
      O   14   -0.51392      1.99977     6.50033    0.01382     8.51392
      H   15    0.11291      0.00000     0.88375    0.00334     0.88709
 =======================================================================
   * Total *    0.00000     19.99218    47.79090    0.21692    68.00000

                      1                      2                      3
                      A                      A                      A
 Frequencies --     76.8426               139.4173               148.1368
 Red. masses --      9.9330                 9.8596                 3.8871
 Frc consts  --      0.0346                 0.1129                 0.0503
 IR Inten    --      8.6865                10.1752                 2.1913

                      4                      5                      6
                      A                      A                      A
 Frequencies --    229.4680               258.5175               374.8694
 Red. masses --      6.2602                 3.5109                 8.6307
 Frc consts  --      0.1942                 0.1382                 0.7146
 IR Inten    --      5.6411                 8.5122                 1.3293

                      7                      8                      9
                      A                      A                      A
 Frequencies --    410.7562               433.5459               555.9713
 Red. masses --      3.0118                 3.9731                 9.0468
 Frc consts  --      0.2994                 0.4400                 1.6476
 IR Inten    --      0.0333                 2.7239                 5.1230

                     10                     11                     12
                      A                      A                      A
 Frequencies --    568.1754               585.2516               655.9487
 Red. masses --      3.7119                 6.6764                 7.3900
 Frc consts  --      0.7060                 1.3473                 1.8734
 IR Inten    --     18.7328                 2.7815                 0.8817

                     13                     14                     15
                      A                      A                      A
 Frequencies --    724.1932               745.4235               848.7856
 Red. masses --      3.6818                 5.5145                 1.4255
 Frc consts  --      1.1377                 1.8053                 0.6051
 IR Inten    --      1.7362                25.8521                41.5679

                     16                     17                     18
                      A                      A                      A
 Frequencies --    851.8237               863.2117               980.6420
 Red. masses --      5.3961                 1.2971                 1.3292
 Frc consts  --      2.3069                 0.5695                 0.7531
 IR Inten    --     37.7307                11.1033                 0.4236

                     19                     20                     21
                      A                      A                      A
 Frequencies --   1004.6443              1029.0933              1033.1498
 Red. masses --      1.3766                 1.7709                 2.7151
 Frc consts  --      0.8186                 1.1050                 1.7075
 IR Inten    --      0.0485                 1.7798                 4.0692

                     22                     23                     24
                      A                      A                      A
 Frequencies --   1130.6991              1186.6214              1216.9253
 Red. masses --      1.3632                 1.4381                 3.5197
 Frc consts  --      1.0268                 1.1931                 3.0711
 IR Inten    --      3.8286                38.3257                 2.6729

                     25                     26                     27
                      A                      A                      A
 Frequencies --   1221.6871              1324.1810              1330.8832
 Red. masses --      2.2930                 2.7512                 2.0057
 Frc consts  --      2.0164                 2.8423                 2.0931
 IR Inten    --     56.9779                 8.4966                20.0745

                     28                     29                     30
                      A                      A                      A
 Frequencies --   1411.7571              1442.3339              1531.1374
 Red. masses --      1.5047                 2.0543                 2.4121
 Frc consts  --      1.7670                 2.5180                 3.3318
 IR Inten    --     16.5951                 6.3032                 1.2854

                     31                     32                     33
                      A                      A                      A
 Frequencies --   1598.2763              1645.6929              1774.5107
 Red. masses --      6.4488                 5.6250                10.3539
 Frc consts  --      9.7058                 8.9758                19.2093
 IR Inten    --     11.0280                31.6518               307.8647

                     34                     35                     36
                      A                      A                      A
 Frequencies --   2334.6763              2901.3688              3169.7031
 Red. masses --     12.6792                 1.0840                 1.0895
 Frc consts  --     40.7188                 5.3763                 6.4491
 IR Inten    --     21.8005               110.6638                 3.6783

                     37                     38                     39
                      A                      A                      A
 Frequencies --   3190.7858              3200.3847              3203.9635
 Red. masses --      1.0887                 1.0942                 1.0958
 Frc consts  --      6.5304                 6.6031                 6.6279
 IR Inten    --      0.1709                 1.5343                 1.2417

 - Thermochemistry -
 -------------------
 Temperature   298.150 Kelvin.  Pressure   1.00000 Atm.
 Atom     1 has atomic number  6 and mass  12.00000

 Molecular mass:   131.03711 amu.
 Principal axes and moments of inertia in atomic units:
                           1         2         3
     Eigenvalues --   356.463972543.372312899.83628
           X            0.99999  -0.00546   0.00000
           Y            0.00546   0.99999   0.00000
           Z            0.00000   0.00000   1.00000
 This molecule is an asymmetric top.
 Rotational symmetry number  1.
 Rotational temperatures (Kelvin)      0.24298     0.03405     0.02987
 Rotational constants (GHZ):           5.06290     0.70959     0.62236
 Zero-point vibrational energy     283116.9 (Joules/Mol)
                                   67.66657 (Kcal/Mol)
 Warning -- explicit consideration of  11 degrees of freedom as
           vibrations may cause significant error
 Vibrational temperatures:    110.56   200.59   213.14   330.15   371.95
          (Kelvin)            539.35   590.99   623.78   799.92   817.48
                              842.05   943.76  1041.95  1072.50  1221.21
                             1225.58  1241.97  1410.92  1445.46  1480.63
                             1486.47  1626.82  1707.28  1750.88  1757.73
                             1905.20  1914.84  2031.20  2075.19  2202.96
                             2299.56  2367.78  2553.12  3359.07  4174.42
                             4560.49  4590.82  4604.63  4609.78

 Zero-point correction=                           0.107834 (Hartree/Particle)
 Thermal correction to Energy=                    0.115969
 Thermal correction to Enthalpy=                  0.116914
 Thermal correction to Gibbs Free Energy=         0.074485
 Sum of electronic and zero-point Energies=           -437.824740
 Sum of electronic and thermal Energies=              -437.816604
 Sum of electronic and thermal Enthalpies=            -437.815660
 Sum of electronic and thermal Free Energies=         -437.858088

                     E (Thermal)             CV                S
                      KCal/Mol        Cal/Mol-Kelvin    Cal/Mol-Kelvin
 Total                   72.772             30.059             89.299
 Electronic               0.000              0.000              0.000
 Translational            0.889              2.981             40.524
 Rotational               0.889              2.981             29.354
 Vibrational             70.994             24.098             19.421
 Vibration     1          0.599              1.965              3.970
 Vibration     2          0.615              1.914              2.812
 Vibration     3          0.618              1.905              2.696
 Vibration     4          0.652              1.796              1.883
 Vibration     5          0.667              1.748              1.672
 Vibration     6          0.746              1.524              1.060
 Vibration     7          0.775              1.447              0.924
 Vibration     8          0.794              1.397              0.847
 Vibration     9          0.911              1.127              0.532
 Vibration    10          0.924              1.100              0.508
 Vibration    11          0.942              1.063              0.476

 Optimization completed.
    -- Stationary point found.
 Normal termination of Gaussian 09 at Tue Apr 23 11:56:13 2024.
