 Gaussian 09, Revision D.01,
 Gaussian 09:  ES64L-G09RevD.01 24-Apr-2013

 ----------------------------------------------------------------------
 # opt freq=noraman b3lyp/6-311+g(d,p) geom=connectivity pop=(hirshfeld
 ,chelpg,mbs,npa)
 ----------------------------------------------------------------------

 -------------------
 Title Card Required
 -------------------
 Symbolic Z-matrix:
 Charge =  0 Multiplicity = 1

 SCF Done:  E(RB3LYP) =  -709.173762426     A.U. after   15 cycles
 SCF Done:  E(RB3LYP) =  -709.175516500     A.U. after   12 cycles
 SCF Done:  E(RB3LYP) =  -709.175660476     A.U. after   11 cycles
 SCF Done:  E(RB3LYP) =  -709.175665621     A.U. after   10 cycles
 SCF Done:  E(RB3LYP) =  -709.175668801     A.U. after   11 cycles
 SCF Done:  E(RB3LYP) =  -709.175673850     A.U. after   10 cycles
 SCF Done:  E(RB3LYP) =  -709.175688267     A.U. after   10 cycles
 SCF Done:  E(RB3LYP) =  -709.175705258     A.U. after   11 cycles
 SCF Done:  E(RB3LYP) =  -709.175712946     A.U. after   10 cycles
 SCF Done:  E(RB3LYP) =  -709.175709761     A.U. after   11 cycles
 SCF Done:  E(RB3LYP) =  -709.175716086     A.U. after   10 cycles
 SCF Done:  E(RB3LYP) =  -709.175716600     A.U. after    8 cycles
 SCF Done:  E(RB3LYP) =  -709.175716941     A.U. after    9 cycles
 SCF Done:  E(RB3LYP) =  -709.175716973     A.U. after    9 cycles
 Optimization completed.
    -- Stationary point found.
 Normal termination of Gaussian 09 at Tue Dec 20 16:54:04 2022.

 ----------------------------------------------------------------------
 #N Geom=AllCheck Guess=TCheck SCRF=Check GenChk RB3LYP/6-311+G(d,p) Fr
 eq
 ----------------------------------------------------------------------

 Structure from the checkpoint file:  "Me_methylthioethercharges.chk"
 -------------------
 Title Card Required
 -------------------
 Charge =  0 Multiplicity = 1

                         Standard orientation:
 ---------------------------------------------------------------------
 Center     Atomic      Atomic             Coordinates (Angstroms)
 Number     Number       Type             X           Y           Z
 ---------------------------------------------------------------------
      1          6           0        1.321608    1.204472   -0.000107
      2          6           0       -0.063476    1.023342   -0.000165
      3          6           0       -0.603192   -0.263793   -0.000067
      4          6           0        0.273033   -1.359817    0.000101
      5          6           0        1.646591   -1.163238    0.000138
      6          6           0        2.202647    0.124006    0.000036
      7          1           0        1.716007    2.215873   -0.000184
      8          1           0       -0.704555    1.895250   -0.000265
      9          1           0       -0.125952   -2.368625    0.000229
     10          1           0        2.301577   -2.029257    0.000272
     11         16           0       -2.348249   -0.634436   -0.000201
     12          6           0       -3.132831    1.007885    0.000331
     13          1           0       -2.876196    1.574898   -0.895479
     14          1           0       -4.206055    0.815319    0.000442
     15          1           0       -2.875917    1.574421    0.896363
     16          6           0        3.699151    0.321022    0.000029
     17          1           0        4.161098   -0.136275    0.880792
     18          1           0        4.160973   -0.135351   -0.881286
     19          1           0        3.959829    1.381455    0.000553
 ---------------------------------------------------------------------

 SCF Done:  E(RB3LYP) =  -709.175716973     A.U. after    1 cycles

 The electronic state is 1-A.
 Alpha  occ. eigenvalues --  -88.85280 -10.20902 -10.20359 -10.18297 -10.17893
 Alpha  occ. eigenvalues --  -10.17860 -10.17646 -10.17602 -10.16992  -7.93881
 Alpha  occ. eigenvalues --   -5.90292  -5.89883  -5.89256  -0.87008  -0.81011
 Alpha  occ. eigenvalues --   -0.76236  -0.75208  -0.69825  -0.64302  -0.61387
 Alpha  occ. eigenvalues --   -0.57816  -0.50299  -0.47584  -0.45691  -0.44222
 Alpha  occ. eigenvalues --   -0.44051  -0.42470  -0.42426  -0.40057  -0.38882
 Alpha  occ. eigenvalues --   -0.37006  -0.35979  -0.34659  -0.32339  -0.28403
 Alpha  occ. eigenvalues --   -0.26002  -0.21072
 Alpha virt. eigenvalues --   -0.01887  -0.01345  -0.00516   0.00506   0.01836
 Alpha virt. eigenvalues --    0.02381   0.03153   0.04559   0.04565   0.05025
 Alpha virt. eigenvalues --    0.05130   0.05687   0.06310   0.07446   0.07732

 Mulliken charges:
               1
     1  C   -1.438605
     2  C    0.832965
     3  C    0.617925
     4  C   -0.085825
     5  C   -0.684508
     6  C    0.932725
     7  H    0.114120
     8  H    0.123297
     9  H    0.130422
    10  H    0.120616
    11  S   -0.644520
    12  C   -0.421578
    13  H    0.176337
    14  H    0.178314
    15  H    0.176340
    16  C   -0.573530
    17  H    0.155169
    18  H    0.155224
    19  H    0.135113
 Sum of Mulliken charges =   0.00000

 Dipole moment (field-independent basis, Debye):
    X=              0.3631    Y=              1.3731    Z=              0.0005  Tot=              1.4203
 Quadrupole moment (field-independent basis, Debye-Ang):
   XX=            -55.2457   YY=            -58.2710   ZZ=            -66.7476
   XY=             -4.7939   XZ=             -0.0015   YZ=             -0.0005

  Exact polarizability: 165.181  -1.265 112.200   0.000  -0.001  71.664
 Approx polarizability: 228.567   0.114 189.539   0.003  -0.003 109.841

 ESP charges:
               1
     1  C   -0.295662
     2  C   -0.054077
     3  C    0.118812
     4  C   -0.111162
     5  C   -0.240839
     6  C    0.262475
     7  H    0.121956
     8  H    0.112673
     9  H    0.125432
    10  H    0.123340
    11  S   -0.255134
    12  C   -0.017127
    13  H    0.025432
    14  H    0.105241
    15  H    0.025401
    16  C   -0.239455
    17  H    0.060104
    18  H    0.060166
    19  H    0.072423
 Sum of ESP charges =   0.00000

 Summary of Natural Population Analysis:

                                       Natural Population
                Natural  -----------------------------------------------
    Atom  No    Charge         Core      Valence    Rydberg      Total
 -----------------------------------------------------------------------
      C    1   -0.18834      1.99905     4.17235    0.01693     6.18834
      C    2   -0.23608      1.99901     4.21884    0.01823     6.23608
      C    3   -0.17933      1.99883     4.15988    0.02063     6.17933
      C    4   -0.21218      1.99904     4.19429    0.01885     6.21218
      C    5   -0.18846      1.99905     4.17248    0.01693     6.18846
      C    6   -0.04923      1.99904     4.03391    0.01627     6.04923
      H    7    0.20255      0.00000     0.79576    0.00169     0.79745
      H    8    0.20647      0.00000     0.79133    0.00220     0.79353
      H    9    0.21114      0.00000     0.78692    0.00194     0.78886
      H   10    0.20403      0.00000     0.79435    0.00163     0.79597
      S   11    0.26112      9.99912     5.69636    0.04340    15.73888
      C   12   -0.71551      1.99928     4.70545    0.01078     6.71551
      H   13    0.21000      0.00000     0.78763    0.00237     0.79000
      H   14    0.22637      0.00000     0.77234    0.00129     0.77363
      H   15    0.21001      0.00000     0.78762    0.00237     0.78999
      C   16   -0.58826      1.99931     4.57906    0.00989     6.58826
      H   17    0.21036      0.00000     0.78821    0.00143     0.78964
      H   18    0.21037      0.00000     0.78820    0.00143     0.78963
      H   19    0.20495      0.00000     0.79372    0.00134     0.79505
 =======================================================================
   * Total *    0.00000     25.99172    47.81870    0.18959    74.00000

                      1                      2                      3
                      A                      A                      A
 Frequencies --     27.3278                32.6543               112.3158
 Red. masses --      1.2189                 2.3158                 3.7640
 Frc consts  --      0.0005                 0.0015                 0.0280
 IR Inten    --      1.1595                 1.2262                 0.1198

                      4                      5                      6
                      A                      A                      A
 Frequencies --    177.9720               218.4950               291.1821
 Red. masses --      3.2143                 1.0833                 3.6146
 Frc consts  --      0.0600                 0.0305                 0.1806
 IR Inten    --      0.7378                 0.0104                 1.2519

                      7                      8                      9
                      A                      A                      A
 Frequencies --    302.9651               363.9726               404.5586
 Red. masses --      3.7336                 4.2995                 4.1800
 Frc consts  --      0.2019                 0.3356                 0.4031
 IR Inten    --      0.7263                 1.3795                 0.4386

                     10                     11                     12
                      A                      A                      A
 Frequencies --    411.6360               489.9969               624.1285
 Red. masses --      2.9480                 2.6603                 5.2407
 Frc consts  --      0.2943                 0.3763                 1.2028
 IR Inten    --      0.0280                18.5441                 6.0064

                     13                     14                     15
                      A                      A                      A
 Frequencies --    651.7612               707.8663               717.8787
 Red. masses --      6.9507                 3.6875                 6.2393
 Frc consts  --      1.7396                 1.0886                 1.8945
 IR Inten    --      0.0468                 0.1100                 0.9489

                     16                     17                     18
                      A                      A                      A
 Frequencies --    806.6680               811.0055               834.7244
 Red. masses --      1.3790                 5.2375                 1.2604
 Frc consts  --      0.5287                 2.0297                 0.5174
 IR Inten    --     45.3522                 2.7135                 0.5588

                     19                     20                     21
                      A                      A                      A
 Frequencies --    945.3203               970.6934               973.8095
 Red. masses --      1.2668                 1.2452                 1.2777
 Frc consts  --      0.6670                 0.6913                 0.7139
 IR Inten    --      0.0916                 2.3415                 1.8127

                     22                     23                     24
                      A                      A                      A
 Frequencies --    984.9281              1006.7446              1034.1323
 Red. masses --      1.3266                 1.4395                 2.9621
 Frc consts  --      0.7582                 0.8596                 1.8664
 IR Inten    --      7.2537                 1.1087                 8.4455

                     25                     26                     27
                      A                      A                      A
 Frequencies --   1062.1232              1099.6069              1145.9292
 Red. masses --      1.5182                 4.1988                 1.3387
 Frc consts  --      1.0091                 2.9912                 1.0357
 IR Inten    --      3.0357                38.5705                 6.6816

                     28                     29                     30
                      A                      A                      A
 Frequencies --   1214.3591              1231.8133              1311.9332
 Red. masses --      1.1403                 2.9572                 5.5297
 Frc consts  --      0.9907                 2.6438                 5.6076
 IR Inten    --      0.1879                 3.4200                 4.1077

                     31                     32                     33
                      A                      A                      A
 Frequencies --   1337.3592              1361.4887              1415.5456
 Red. masses --      1.3813                 1.1797                 1.2489
 Frc consts  --      1.4556                 1.2884                 1.4744
 IR Inten    --      0.6915                 0.7995                 0.1230

                     34                     35                     36
                      A                      A                      A
 Frequencies --   1429.1979              1466.3464              1486.6025
 Red. masses --      2.4627                 1.0515                 1.0583
 Frc consts  --      2.9638                 1.3320                 1.3779
 IR Inten    --      3.4341                 9.9856                24.7109

                     37                     38                     39
                      A                      A                      A
 Frequencies --   1487.3155              1495.7009              1526.1209
 Red. masses --      1.0432                 1.1070                 2.2251
 Frc consts  --      1.3597                 1.4592                 3.0533
 IR Inten    --      7.1032                12.3335                59.3340

                     40                     41                     42
                      A                      A                      A
 Frequencies --   1599.6559              1642.6232              3020.9927
 Red. masses --      5.4403                 5.6130                 1.0370
 Frc consts  --      8.2022                 8.9232                 5.5763
 IR Inten    --      3.5875                 9.1333                43.0366

                     43                     44                     45
                      A                      A                      A
 Frequencies --   3038.3613              3068.0353              3098.4693
 Red. masses --      1.0298                 1.1005                 1.1001
 Frc consts  --      5.6010                 6.1030                 6.2225
 IR Inten    --     24.4879                18.0099                17.9283

                     46                     47                     48
                      A                      A                      A
 Frequencies --   3118.9422              3131.6745              3152.5728
 Red. masses --      1.1081                 1.1027                 1.0874
 Frc consts  --      6.3511                 6.3720                 6.3673
 IR Inten    --      9.3061                 5.2257                12.1749

                     49                     50                     51
                      A                      A                      A
 Frequencies --   3158.5077              3172.9785              3195.9730
 Red. masses --      1.0887                 1.0940                 1.0913
 Frc consts  --      6.3992                 6.4891                 6.5673
 IR Inten    --     17.0842                10.4261                 8.0772

 - Thermochemistry -
 -------------------
 Temperature   298.150 Kelvin.  Pressure   1.00000 Atm.
 Atom     1 has atomic number  6 and mass  12.00000

 Molecular mass:   138.05032 amu.
 Principal axes and moments of inertia in atomic units:
                           1         2         3
     Eigenvalues --   444.833232401.464462823.56771
           X            0.99984  -0.01779   0.00000
           Y            0.01779   0.99984   0.00000
           Z            0.00001   0.00000   1.00000
 This molecule is an asymmetric top.
 Rotational symmetry number  1.
 Warning -- assumption of classical behavior for rotation
           may cause significant error
 Rotational temperatures (Kelvin)      0.19471     0.03607     0.03068
 Rotational constants (GHZ):           4.05712     0.75152     0.63917
 Zero-point vibrational energy     408961.2 (Joules/Mol)
                                   97.74406 (Kcal/Mol)
 Warning -- explicit consideration of  11 degrees of freedom as
           vibrations may cause significant error
 Vibrational temperatures:     39.32    46.98   161.60   256.06   314.37
          (Kelvin)            418.95   435.90   523.67   582.07   592.25
                              705.00   897.98   937.74  1018.46  1032.87
                             1160.61  1166.85  1200.98  1360.10  1396.61
                             1401.09  1417.09  1448.48  1487.88  1528.16
                             1582.09  1648.73  1747.19  1772.30  1887.58
                             1924.16  1958.88  2036.65  2056.29  2109.74
                             2138.89  2139.91  2151.98  2195.74  2301.55
                             2363.37  4346.53  4371.52  4414.21  4458.00
                             4487.46  4505.78  4535.84  4544.38  4565.20
                             4598.29

 Zero-point correction=                           0.155765 (Hartree/Particle)
 Thermal correction to Energy=                    0.165352
 Thermal correction to Enthalpy=                  0.166296
 Thermal correction to Gibbs Free Energy=         0.119306
 Sum of electronic and zero-point Energies=           -709.019952
 Sum of electronic and thermal Energies=              -709.010365
 Sum of electronic and thermal Enthalpies=            -709.009421
 Sum of electronic and thermal Free Energies=         -709.056411

                     E (Thermal)             CV                S
                      KCal/Mol        Cal/Mol-Kelvin    Cal/Mol-Kelvin
 Total                  103.760             34.671             98.899
 Electronic               0.000              0.000              0.000
 Translational            0.889              2.981             40.679
 Rotational               0.889              2.981             29.491
 Vibrational            101.982             28.710             28.729
 Vibration     1          0.593              1.984              6.015
 Vibration     2          0.594              1.983              5.661
 Vibration     3          0.607              1.939              3.228
 Vibration     4          0.628              1.869              2.350
 Vibration     5          0.646              1.813              1.972
 Vibration     6          0.687              1.690              1.467
 Vibration     7          0.694              1.668              1.400
 Vibration     8          0.738              1.546              1.105
 Vibration     9          0.770              1.460              0.946
 Vibration    10          0.776              1.445              0.921
 Vibration    11          0.846              1.272              0.684

 Optimization completed.
    -- Stationary point found.
 Normal termination of Gaussian 09 at Tue Dec 20 16:55:54 2022.
