 Gaussian 09, Revision D.01,
 Gaussian 09:  ES64L-G09RevD.01 24-Apr-2013

 ----------------------------------------------------------------------
 # opt=rcfc freq=noraman b3lyp/6-311+g(d,p) geom=allcheck pop=(hirshfel
 d,mbs,npa,chelpg) guess=read
 ----------------------------------------------------------------------

 Structure from the checkpoint file:  "ethylthioethercharges.chk"
 -------------------
 Title Card Required
 -------------------
 Charge =  0 Multiplicity = 1

 SCF Done:  E(RB3LYP) =  -709.173356431     A.U. after    1 cycles
 Optimization completed on the basis of negligible forces.
    -- Stationary point found.
 Normal termination of Gaussian 09 at Tue Dec 20 17:07:16 2022.

 ----------------------------------------------------------------------
 #N Geom=AllCheck Guess=TCheck SCRF=Check GenChk RB3LYP/6-311+G(d,p) Fr
 eq
 ----------------------------------------------------------------------

 Structure from the checkpoint file:  "ethylthioethercharges.chk"
 -------------------
 Title Card Required
 -------------------
 Charge =  0 Multiplicity = 1

                         Standard orientation:
 ---------------------------------------------------------------------
 Center     Atomic      Atomic             Coordinates (Angstroms)
 Number     Number       Type             X           Y           Z
 ---------------------------------------------------------------------
      1          6           0       -2.108736    1.435678   -0.000287
      2          6           0       -0.758467    1.082504   -0.000227
      3          6           0       -0.386442   -0.265984    0.000031
      4          6           0       -1.388207   -1.248905    0.000223
      5          6           0       -2.729704   -0.886601    0.000158
      6          6           0       -3.100123    0.459396   -0.000098
      7          1           0       -2.379933    2.485853   -0.000487
      8          1           0       -0.011114    1.864369   -0.000382
      9          1           0       -1.111692   -2.297755    0.000427
     10          1           0       -3.489549   -1.660300    0.000309
     11          1           0       -4.146799    0.740077   -0.000147
     12         16           0        1.297674   -0.851916    0.000125
     13          6           0        2.308234    0.679320   -0.000083
     14          1           0        2.063470    1.266390    0.887689
     15          1           0        2.063536    1.266111   -0.888056
     16          6           0        3.788129    0.299717    0.000029
     17          1           0        4.049964   -0.284957   -0.884978
     18          1           0        4.401328    1.204795   -0.000098
     19          1           0        4.049904   -0.284671    0.885243
 ---------------------------------------------------------------------

 SCF Done:  E(RB3LYP) =  -709.173356431     A.U. after    1 cycles

 The electronic state is 1-A.
 Alpha  occ. eigenvalues --  -88.85116 -10.21297 -10.21048 -10.18096 -10.18042
 Alpha  occ. eigenvalues --  -10.18013 -10.17945 -10.17782 -10.17481  -7.93746
 Alpha  occ. eigenvalues --   -5.90144  -5.89746  -5.89133  -0.86963  -0.81528
 Alpha  occ. eigenvalues --   -0.76569  -0.75417  -0.69715  -0.62963  -0.60904
 Alpha  occ. eigenvalues --   -0.58266  -0.52291  -0.47159  -0.46743  -0.46228
 Alpha  occ. eigenvalues --   -0.44737  -0.43016  -0.40053  -0.38843  -0.38588
 Alpha  occ. eigenvalues --   -0.37071  -0.35887  -0.34638  -0.32117  -0.29245
 Alpha  occ. eigenvalues --   -0.26191  -0.21489
 Alpha virt. eigenvalues --   -0.01946  -0.01577  -0.00574   0.00410   0.01703
 Alpha virt. eigenvalues --    0.02970   0.03105   0.03696   0.03990   0.04672
 Alpha virt. eigenvalues --    0.05854   0.06281   0.06813   0.06925   0.07526

 Mulliken charges:
               1
     1  C   -0.928820
     2  C    0.571498
     3  C    1.012387
     4  C   -0.435226
     5  C   -0.322795
     6  C   -0.093064
     7  H    0.125386
     8  H    0.130176
     9  H    0.128745
    10  H    0.126370
    11  H    0.124268
    12  S   -0.676678
    13  C   -0.070275
    14  H    0.177456
    15  H    0.177455
    16  C   -0.508736
    17  H    0.157312
    18  H    0.147227
    19  H    0.157313
 Sum of Mulliken charges =   0.00000

 Dipole moment (field-independent basis, Debye):
    X=              0.5465    Y=              1.4030    Z=             -0.0002  Tot=              1.5057
 Quadrupole moment (field-independent basis, Debye-Ang):
   XX=            -54.6430   YY=            -58.8954   ZZ=            -66.9750
   XY=              3.4225   XZ=             -0.0005   YZ=             -0.0015

  Exact polarizability: 163.067  -1.320 112.422   0.056  -0.071  72.239
 Approx polarizability: 224.618  -3.560 190.192   0.001  -0.015 110.790

 ESP charges:
               1
     1  C   -0.114896
     2  C   -0.120763
     3  C    0.158092
     4  C   -0.131054
     5  C   -0.097719
     6  C   -0.081533
     7  H    0.093902
     8  H    0.096062
     9  H    0.132509
    10  H    0.084722
    11  H    0.083351
    12  S   -0.320554
    13  C    0.206000
    14  H   -0.003701
    15  H   -0.003687
    16  C   -0.058617
    17  H    0.037906
    18  H    0.002080
    19  H    0.037899
 Sum of ESP charges =   0.00000

 Summary of Natural Population Analysis:

                                       Natural Population
                Natural  -----------------------------------------------
    Atom  No    Charge         Core      Valence    Rydberg      Total
 -----------------------------------------------------------------------
      C    1   -0.18652      1.99916     4.16914    0.01822     6.18652
      C    2   -0.24352      1.99901     4.22609    0.01841     6.24352
      C    3   -0.17044      1.99884     4.15088    0.02072     6.17044
      C    4   -0.22151      1.99904     4.20373    0.01874     6.22151
      C    5   -0.18953      1.99916     4.17216    0.01822     6.18953
      C    6   -0.22423      1.99916     4.20625    0.01883     6.22423
      H    7    0.20564      0.00000     0.79287    0.00150     0.79436
      H    8    0.20650      0.00000     0.79121    0.00229     0.79350
      H    9    0.21177      0.00000     0.78641    0.00182     0.78823
      H   10    0.20710      0.00000     0.79141    0.00148     0.79290
      H   11    0.20681      0.00000     0.79176    0.00143     0.79319
      S   12    0.25947      9.99908     5.70056    0.04089    15.74053
      C   13   -0.50918      1.99925     4.49449    0.01543     6.50918
      H   14    0.20484      0.00000     0.79234    0.00282     0.79516
      H   15    0.20484      0.00000     0.79234    0.00282     0.79516
      C   16   -0.58417      1.99937     4.57402    0.01079     6.58417
      H   17    0.20637      0.00000     0.79181    0.00182     0.79363
      H   18    0.20940      0.00000     0.78951    0.00109     0.79060
      H   19    0.20637      0.00000     0.79181    0.00182     0.79363
 =======================================================================
   * Total *    0.00000     25.99206    47.80879    0.19915    74.00000

                      1                      2                      3
                      A                      A                      A
 Frequencies --     14.8831                84.0547               128.5554
 Red. masses --      4.4197                 1.8106                 3.6052
 Frc consts  --      0.0006                 0.0075                 0.0351
 IR Inten    --      1.1804                 0.3831                 0.3068

                      4                      5                      6
                      A                      A                      A
 Frequencies --    183.2273               233.3344               289.9816
 Red. masses --      4.8042                 1.1232                 3.6175
 Frc consts  --      0.0950                 0.0360                 0.1792
 IR Inten    --      0.1804                 0.1104                 0.4986

                      7                      8                      9
                      A                      A                      A
 Frequencies --    311.5306               410.4783               455.5076
 Red. masses --      4.9763                 2.9166                 8.3387
 Frc consts  --      0.2846                 0.2895                 1.0194
 IR Inten    --      1.1924                 0.0014                 1.7686

                     10                     11                     12
                      A                      A                      A
 Frequencies --    476.5452               631.3071               684.6440
 Red. masses --      3.2617                 6.3681                 4.3310
 Frc consts  --      0.4364                 1.4953                 1.1961
 IR Inten    --      8.4440                 0.1036                 0.0315

                     13                     14                     15
                      A                      A                      A
 Frequencies --    699.5028               708.4254               741.5617
 Red. masses --      2.3598                 6.7630                 1.5098
 Frc consts  --      0.6803                 1.9998                 0.4892
 IR Inten    --     21.3024                16.4331                66.2138

                     16                     17                     18
                      A                      A                      A
 Frequencies --    802.8943               840.4848               897.6003
 Red. masses --      1.1143                 1.2483                 1.3478
 Frc consts  --      0.4232                 0.5195                 0.6398
 IR Inten    --      2.1561                 0.4695                 0.5819

                     19                     20                     21
                      A                      A                      A
 Frequencies --    976.4008               989.2267               997.3498
 Red. masses --      1.3603                 2.0321                 1.2769
 Frc consts  --      0.7641                 1.1716                 0.7483
 IR Inten    --      0.0502                 4.7708                 0.0064

                     22                     23                     24
                      A                      A                      A
 Frequencies --   1010.3173              1043.9666              1045.9004
 Red. masses --      6.1270                 1.2062                 2.8569
 Frc consts  --      3.6848                 0.7746                 1.8413
 IR Inten    --      0.2346                 0.1359                16.2263

                     25                     26                     27
                      A                      A                      A
 Frequencies --   1071.3436              1101.7476              1104.6751
 Red. masses --      1.9466                 2.9790                 1.6182
 Frc consts  --      1.3164                 2.1305                 1.1634
 IR Inten    --      3.3210                34.6176                 6.4535

                     28                     29                     30
                      A                      A                      A
 Frequencies --   1182.3330              1207.8385              1266.2880
 Red. masses --      1.1063                 1.1487                 1.2318
 Frc consts  --      0.9111                 0.9873                 1.1637
 IR Inten    --      0.4442                 1.1045                 0.0208

                     31                     32                     33
                      A                      A                      A
 Frequencies --   1294.8069              1314.1162              1354.9511
 Red. masses --      1.3664                 3.5291                 1.5334
 Frc consts  --      1.3497                 3.5908                 1.6587
 IR Inten    --     21.4749                 6.0832                 0.7298

                     34                     35                     36
                      A                      A                      A
 Frequencies --   1415.2041              1469.4170              1490.1187
 Red. masses --      1.2194                 2.1440                 1.0901
 Frc consts  --      1.4389                 2.7275                 1.4261
 IR Inten    --      3.7774                 5.1412                13.2178

                     37                     38                     39
                      A                      A                      A
 Frequencies --   1492.2267              1503.9045              1510.0532
 Red. masses --      1.0364                 1.0511                 1.9783
 Frc consts  --      1.3598                 1.4006                 2.6578
 IR Inten    --     10.3144                 4.2475                38.5850

                     40                     41                     42
                      A                      A                      A
 Frequencies --   1610.3783              1626.7940              3032.9471
 Red. masses --      5.3612                 5.3336                 1.0346
 Frc consts  --      8.1917                 8.3164                 5.6073
 IR Inten    --      4.7710                49.7596                29.7486

                     43                     44                     45
                      A                      A                      A
 Frequencies --   3040.7042              3084.1131              3096.3443
 Red. masses --      1.0562                 1.1074                 1.1011
 Frc consts  --      5.7536                 6.2063                 6.2199
 IR Inten    --     15.7540                 0.3417                21.9326

                     46                     47                     48
                      A                      A                      A
 Frequencies --   3109.1033              3160.2781              3166.2715
 Red. masses --      1.1053                 1.0854                 1.0881
 Frc consts  --      6.2953                 6.3869                 6.4273
 IR Inten    --     28.0690                 3.1833                 2.2407

                     49                     50                     51
                      A                      A                      A
 Frequencies --   3176.7491              3189.7227              3202.9589
 Red. masses --      1.0926                 1.0964                 1.0923
 Frc consts  --      6.4966                 6.5722                 6.6024
 IR Inten    --     16.9916                21.0833                 7.0131

 - Thermochemistry -
 -------------------
 Temperature   298.150 Kelvin.  Pressure   1.00000 Atm.
 Atom     1 has atomic number  6 and mass  12.00000

 Molecular mass:   138.05032 amu.
 Principal axes and moments of inertia in atomic units:
                           1         2         3
     Eigenvalues --   451.095672430.751262859.22014
           X            0.99990   0.01379  -0.00001
           Y           -0.01379   0.99990   0.00018
           Z            0.00001  -0.00018   1.00000
 This molecule is an asymmetric top.
 Rotational symmetry number  1.
 Warning -- assumption of classical behavior for rotation
           may cause significant error
 Rotational temperatures (Kelvin)      0.19201     0.03563     0.03029
 Rotational constants (GHZ):           4.00079     0.74246     0.63120
 Zero-point vibrational energy     412311.3 (Joules/Mol)
                                   98.54477 (Kcal/Mol)
 Warning -- explicit consideration of  10 degrees of freedom as
           vibrations may cause significant error
 Vibrational temperatures:     21.41   120.94   184.96   263.62   335.72
          (Kelvin)            417.22   448.22   590.59   655.37   685.64
                              908.31   985.05  1006.43  1019.26  1066.94
                             1155.18  1209.27  1291.44  1404.82  1423.27
                             1434.96  1453.62  1502.03  1504.82  1541.42
                             1585.17  1589.38  1701.11  1737.81  1821.90
                             1862.94  1890.72  1949.47  2036.16  2114.16
                             2143.95  2146.98  2163.78  2172.63  2316.97
                             2340.59  4363.73  4374.89  4437.35  4454.94
                             4473.30  4546.93  4555.55  4570.63  4589.29
                             4608.34

 Zero-point correction=                           0.157041 (Hartree/Particle)
 Thermal correction to Energy=                    0.166156
 Thermal correction to Enthalpy=                  0.167101
 Thermal correction to Gibbs Free Energy=         0.121147
 Sum of electronic and zero-point Energies=           -709.016315
 Sum of electronic and thermal Energies=              -709.007200
 Sum of electronic and thermal Enthalpies=            -709.006256
 Sum of electronic and thermal Free Energies=         -709.052210

                     E (Thermal)             CV                S
                      KCal/Mol        Cal/Mol-Kelvin    Cal/Mol-Kelvin
 Total                  104.265             33.525             96.718
 Electronic               0.000              0.000              0.000
 Translational            0.889              2.981             40.679
 Rotational               0.889              2.981             29.529
 Vibrational            102.487             27.563             26.510
 Vibration     1          0.593              1.986              7.221
 Vibration     2          0.601              1.960              3.794
 Vibration     3          0.611              1.925              2.968
 Vibration     4          0.631              1.863              2.295
 Vibration     5          0.654              1.790              1.853
 Vibration     6          0.686              1.692              1.474
 Vibration     7          0.700              1.652              1.354
 Vibration     8          0.775              1.447              0.925
 Vibration     9          0.814              1.349              0.779
 Vibration    10          0.833              1.302              0.719

 Optimization completed on the basis of negligible forces.
    -- Stationary point found.
 Normal termination of Gaussian 09 at Tue Dec 20 17:09:05 2022.
