 Gaussian 09, Revision D.01,
 Gaussian 09:  ES64L-G09RevD.01 24-Apr-2013

 --------------------------------------------------------------
 # b3lyp/6-311+g(d,p) geom=connectivity pop=(hirshfeld,mbs,npa)
 --------------------------------------------------------------

 ---------
 Table13_2
 ---------
 Symbolic Z-matrix:
 Charge =  0 Multiplicity = 1

                         Standard orientation:
 ---------------------------------------------------------------------
 Center     Atomic      Atomic             Coordinates (Angstroms)
 Number     Number       Type             X           Y           Z
 ---------------------------------------------------------------------
      1          6           0        0.238840    0.212521    0.001079
      2          6           0       -0.118039    1.556398    0.007754
      3          6           0       -1.473869    1.879266    0.002322
      4          6           0       -2.442495    0.878649   -0.008414
      5          6           0       -2.078206   -0.471768   -0.011490
      6          6           0       -0.716974   -0.797593   -0.009883
      7          1           0        0.639249    2.329137    0.012835
      8          1           0       -1.772089    2.921733    0.002725
      9          1           0       -3.493128    1.148780   -0.016683
     10          1           0       -0.406066   -1.835377   -0.018955
     11          6           0       -3.123900   -1.560665    0.009523
     12          1           0       -2.773436   -2.461095   -0.499660
     13          1           0       -3.373738   -1.841099    1.038455
     14          1           0       -4.046581   -1.233221   -0.474534
     15         35           0        2.100390   -0.263135    0.000299
 ---------------------------------------------------------------------

 SCF Done:  E(RB3LYP) =  -2845.18185155     A.U. after   15 cycles

 The electronic state is 1-A.
 Alpha  occ. eigenvalues -- -482.82964 -62.48250 -56.30283 -56.29900 -56.29888
 Alpha  occ. eigenvalues --  -10.23689 -10.20027 -10.19054 -10.18983 -10.18942
 Alpha  occ. eigenvalues --  -10.18449 -10.17905  -8.69217  -6.52350  -6.51069
 Alpha  occ. eigenvalues --   -6.51046  -2.63445  -2.63076  -2.63061  -2.62044
 Alpha  occ. eigenvalues --   -2.62043  -0.88415  -0.81508  -0.78324  -0.73629
 Alpha  occ. eigenvalues --   -0.70231  -0.61859  -0.59313  -0.52421  -0.48576
 Alpha  occ. eigenvalues --   -0.46069  -0.43502  -0.43031  -0.42373  -0.40187
 Alpha  occ. eigenvalues --   -0.38511  -0.36375  -0.35628  -0.31603  -0.29314
 Alpha  occ. eigenvalues --   -0.26482  -0.24955
 Alpha virt. eigenvalues --   -0.02987  -0.02714  -0.01686  -0.00060   0.01412
 Alpha virt. eigenvalues --    0.01690   0.03756   0.03847   0.04474   0.04827
 Alpha virt. eigenvalues --    0.06107   0.06657   0.06850   0.07745   0.08295

 Mulliken charges:
               1
     1  C    0.565028
     2  C   -0.317593
     3  C   -0.072800
     4  C   -0.609560
     5  C    0.969774
     6  C   -0.767354
     7  H    0.143853
     8  H    0.132399
     9  H    0.121226
    10  H    0.136573
    11  C   -0.602662
    12  H    0.143917
    13  H    0.172091
    14  H    0.142891
    15  Br  -0.157783
 Sum of Mulliken charges =   0.00000

 Dipole moment (field-independent basis, Debye):
    X=             -2.1807    Y=              0.1214    Z=              0.0371  Tot=              2.1844
 Quadrupole moment (field-independent basis, Debye-Ang):
   XX=            -56.3595   YY=            -55.1233   ZZ=            -64.0432
   XY=              0.8665   XZ=             -0.0857   YZ=             -0.0159

 Summary of Natural Population Analysis:

                                       Natural Population
                Natural  -----------------------------------------------
    Atom  No    Charge         Core      Valence    Rydberg      Total
 -----------------------------------------------------------------------
      C    1   -0.08984      1.99862     4.06830    0.02291     6.08984
      C    2   -0.23854      1.99894     4.22009    0.01951     6.23854
      C    3   -0.17951      1.99916     4.16231    0.01805     6.17951
      C    4   -0.20884      1.99905     4.19305    0.01675     6.20884
      C    5   -0.01438      1.99905     3.99956    0.01577     6.01438
      C    6   -0.23288      1.99884     4.21389    0.02015     6.23288
      H    7    0.22329      0.00000     0.77510    0.00161     0.77671
      H    8    0.21027      0.00000     0.78813    0.00160     0.78973
      H    9    0.20653      0.00000     0.79187    0.00160     0.79347
      H   10    0.22063      0.00000     0.77765    0.00172     0.77937
      C   11   -0.58998      1.99930     4.58066    0.01002     6.58998
      H   12    0.21046      0.00000     0.78822    0.00133     0.78954
      H   13    0.21660      0.00000     0.78205    0.00135     0.78340
      H   14    0.20993      0.00000     0.78876    0.00130     0.79007
     Br   15    0.05627     27.99927     6.92564    0.01882    34.94373
 =======================================================================
   * Total *    0.00000     41.99223    41.85528    0.15249    84.00000

 Normal termination of Gaussian 09 at Mon Aug  2 15:20:03 2021.
