 Gaussian 09, Revision D.01,
 Gaussian 09:  ES64L-G09RevD.01 24-Apr-2013

 ----------------------------------------------------------------------
 # opt freq=noraman b3lyp/6-311+g(d,p) pop=(npa,hirshfeld,chelpg,mbs) g
 eom=connectivity
 ----------------------------------------------------------------------

 -------------------
 Title Card Required
 -------------------
 Symbolic Z-matrix:
 Charge =  0 Multiplicity = 1

 SCF Done:  E(RB3LYP) =  -1006.99566995     A.U. after   15 cycles
 SCF Done:  E(RB3LYP) =  -1006.99813744     A.U. after   12 cycles
 SCF Done:  E(RB3LYP) =  -1006.99880717     A.U. after   12 cycles
 SCF Done:  E(RB3LYP) =  -1006.99882908     A.U. after   12 cycles
 SCF Done:  E(RB3LYP) =  -1006.99883344     A.U. after   11 cycles
 SCF Done:  E(RB3LYP) =  -1006.99883610     A.U. after   12 cycles
 SCF Done:  E(RB3LYP) =  -1006.99884016     A.U. after   11 cycles
 SCF Done:  E(RB3LYP) =  -1006.99884448     A.U. after   12 cycles
 SCF Done:  E(RB3LYP) =  -1006.99884513     A.U. after    9 cycles
 SCF Done:  E(RB3LYP) =  -1006.99884537     A.U. after   10 cycles
 Optimization completed.
    -- Stationary point found.
 Normal termination of Gaussian 09 at Tue Dec 20 16:55:27 2022.

 ----------------------------------------------------------------------
 #N Geom=AllCheck Guess=TCheck SCRF=Check GenChk RB3LYP/6-311+G(d,p) Fr
 eq
 ----------------------------------------------------------------------

 Structure from the checkpoint file:  "CF3_methylthioethercharges.chk"
 -------------------
 Title Card Required
 -------------------
 Charge =  0 Multiplicity = 1

                         Standard orientation:
 ---------------------------------------------------------------------
 Center     Atomic      Atomic             Coordinates (Angstroms)
 Number     Number       Type             X           Y           Z
 ---------------------------------------------------------------------
      1          6           0       -0.342660   -1.108035   -0.030889
      2          6           0        1.044227   -0.980915   -0.017889
      3          6           0        1.636304    0.286359   -0.005753
      4          6           0        0.811229    1.423414   -0.009975
      5          6           0       -0.568020    1.292830   -0.023952
      6          6           0       -1.154002    0.023028   -0.036607
      7          1           0       -0.788853   -2.094485   -0.044078
      8          1           0        1.649521   -1.877027   -0.019084
      9          1           0        1.255992    2.412109   -0.004570
     10          1           0       -1.191506    2.178525   -0.032644
     11         16           0        3.388131    0.579419    0.010518
     12          6           0        4.107478   -1.093214    0.012102
     13          1           0        3.838858   -1.645115   -0.889230
     14          1           0        5.186797   -0.939866    0.023066
     15          1           0        3.821439   -1.651011    0.904404
     16          6           0       -2.648106   -0.109154    0.000546
     17          9           0       -3.265039    0.842348   -0.740153
     18          9           0       -3.140696    0.014997    1.262235
     19          9           0       -3.072159   -1.308425   -0.458932
 ---------------------------------------------------------------------

 SCF Done:  E(RB3LYP) =  -1006.99884537     A.U. after    1 cycles

 The electronic state is 1-A.
 Alpha  occ. eigenvalues --  -88.87163 -24.71592 -24.71400 -24.70951 -10.43242
 Alpha  occ. eigenvalues --  -10.23455 -10.21811 -10.21089 -10.20559 -10.20476
 Alpha  occ. eigenvalues --  -10.20099 -10.20028  -7.95766  -5.92173  -5.91758
 Alpha  occ. eigenvalues --   -5.91153  -1.31895  -1.23342  -1.22731  -0.89660
 Alpha  occ. eigenvalues --   -0.83371  -0.78286  -0.77770  -0.71900  -0.67300
 Alpha  occ. eigenvalues --   -0.64321  -0.61743  -0.59705  -0.59482  -0.58314
 Alpha  occ. eigenvalues --   -0.50232  -0.49405  -0.48294  -0.47375  -0.47050
 Alpha  occ. eigenvalues --   -0.45695  -0.45556  -0.44470  -0.43891  -0.43111
 Alpha  occ. eigenvalues --   -0.41640  -0.40873  -0.39986  -0.38470  -0.37417
 Alpha  occ. eigenvalues --   -0.34243  -0.31504  -0.28374  -0.23493
 Alpha virt. eigenvalues --   -0.04650  -0.03857  -0.01555   0.00074   0.01193
 Alpha virt. eigenvalues --    0.02597   0.03091   0.03395   0.03726   0.04183
 Alpha virt. eigenvalues --    0.05459   0.05969   0.06279   0.06884   0.07353

 Mulliken charges:
               1
     1  C   -0.880769
     2  C    0.711057
     3  C    0.620643
     4  C   -0.212606
     5  C   -0.275820
     6  C   -0.362201
     7  H    0.142581
     8  H    0.132999
     9  H    0.140991
    10  H    0.144244
    11  S   -0.618804
    12  C   -0.437866
    13  H    0.181704
    14  H    0.185146
    15  H    0.181218
    16  C    0.657948
    17  F   -0.108690
    18  F   -0.073149
    19  F   -0.128626
 Sum of Mulliken charges =   0.00000

 Dipole moment (field-independent basis, Debye):
    X=              3.6587    Y=             -1.1411    Z=             -0.0825  Tot=              3.8334
 Quadrupole moment (field-independent basis, Debye-Ang):
   XX=            -78.2005   YY=            -70.0869   ZZ=            -80.7520
   XY=             -6.7940   XZ=              0.2636   YZ=              0.0148

  Exact polarizability: 166.934  -3.146 111.986   0.348   0.092  72.488
 Approx polarizability: 234.954  -0.153 189.270   1.001   0.301 111.039

 ESP charges:
               1
     1  C   -0.125758
     2  C   -0.100003
     3  C    0.159078
     4  C   -0.139286
     5  C   -0.096058
     6  C   -0.049749
     7  H    0.112741
     8  H    0.118028
     9  H    0.133077
    10  H    0.113347
    11  S   -0.223603
    12  C   -0.056548
    13  H    0.041151
    14  H    0.121372
    15  H    0.041848
    16  C    0.688482
    17  F   -0.248094
    18  F   -0.252101
    19  F   -0.237925
 Sum of ESP charges =   0.00000

 Summary of Natural Population Analysis:

                                       Natural Population
                Natural  -----------------------------------------------
    Atom  No    Charge         Core      Valence    Rydberg      Total
 -----------------------------------------------------------------------
      C    1   -0.15714      1.99908     4.14082    0.01724     6.15714
      C    2   -0.23788      1.99901     4.22111    0.01775     6.23788
      C    3   -0.16012      1.99885     4.14030    0.02098     6.16012
      C    4   -0.21421      1.99904     4.19668    0.01849     6.21421
      C    5   -0.16035      1.99908     4.14398    0.01729     6.16035
      C    6   -0.16853      1.99888     4.15149    0.01817     6.16853
      H    7    0.22580      0.00000     0.77253    0.00167     0.77420
      H    8    0.21300      0.00000     0.78498    0.00201     0.78700
      H    9    0.21817      0.00000     0.78002    0.00181     0.78183
      H   10    0.22540      0.00000     0.77295    0.00165     0.77460
      S   11    0.28454      9.99910     5.67361    0.04275    15.71546
      C   12   -0.71580      1.99927     4.70579    0.01073     6.71580
      H   13    0.21312      0.00000     0.78470    0.00218     0.78688
      H   14    0.23034      0.00000     0.76842    0.00124     0.76966
      H   15    0.21322      0.00000     0.78459    0.00219     0.78678
      C   16    1.06821      1.99909     2.87247    0.06023     4.93179
      F   17   -0.35900      1.99992     7.35256    0.00651     9.35900
      F   18   -0.36010      1.99992     7.35376    0.00641     9.36010
      F   19   -0.35868      1.99992     7.35233    0.00644     9.35868
 =======================================================================
   * Total *    0.00000     31.99117    65.75308    0.25575    98.00000

                      1                      2                      3
                      A                      A                      A
 Frequencies --     16.0303                47.4168                76.3251
 Red. masses --      6.5883                 3.3729                 9.6680
 Frc consts  --      0.0010                 0.0045                 0.0332
 IR Inten    --      0.2857                 1.0529                 1.2624

                      4                      5                      6
                      A                      A                      A
 Frequencies --    138.6460               191.8260               213.0608
 Red. masses --      5.7701                 2.6207                 4.4893
 Frc consts  --      0.0654                 0.0568                 0.1201
 IR Inten    --      0.9285                 0.0755                 1.0876

                      7                      8                      9
                      A                      A                      A
 Frequencies --    232.6171               271.3178               347.5165
 Red. masses --      1.4710                11.6240                 5.6744
 Frc consts  --      0.0469                 0.5042                 0.4038
 IR Inten    --      0.0831                 0.3650                 0.6119

                     10                     11                     12
                      A                      A                      A
 Frequencies --    382.9663               407.5059               414.7955
 Red. masses --      6.9147                 3.7119                 4.8122
 Frc consts  --      0.5975                 0.3632                 0.4878
 IR Inten    --      3.0212                 1.3170                 1.7295

                     13                     14                     15
                      A                      A                      A
 Frequencies --    491.6597               493.1780               570.6847
 Red. masses --      7.0605                 5.5381                12.3558
 Frc consts  --      1.0056                 0.7936                 2.3709
 IR Inten    --     14.9282                15.6924                 0.3266

                     16                     17                     18
                      A                      A                      A
 Frequencies --    585.2269               646.0844               696.4317
 Red. masses --      4.8801                 7.1342                 8.7592
 Frc consts  --      0.9848                 1.7546                 2.5031
 IR Inten    --      8.7797                 0.7623                 1.5957

                     19                     20                     21
                      A                      A                      A
 Frequencies --    718.6556               729.1973               782.6050
 Red. masses --      7.1868                 4.1516                 8.8438
 Frc consts  --      2.1869                 1.3006                 3.1913
 IR Inten    --      0.6300                 4.5850                 1.3942

                     22                     23                     24
                      A                      A                      A
 Frequencies --    830.9186               838.0560               964.3381
 Red. masses --      1.4992                 1.3005                 1.3114
 Frc consts  --      0.6099                 0.5381                 0.7186
 IR Inten    --     49.8749                 8.4686                 7.4817

                     25                     26                     27
                      A                      A                      A
 Frequencies --    973.8093               982.9954               989.1817
 Red. masses --      1.1919                 1.3487                 1.3232
 Frc consts  --      0.6660                 0.7679                 0.7628
 IR Inten    --      2.3356                 0.2692                10.2692

                     28                     29                     30
                      A                      A                      A
 Frequencies --   1027.4690              1072.6515              1097.3874
 Red. masses --      3.9095                 5.3136                10.0230
 Frc consts  --      2.4317                 3.6021                 7.1116
 IR Inten    --     52.4540                85.0906               254.4750

                     31                     32                     33
                      A                      A                      A
 Frequencies --   1104.5269              1117.9692              1164.8431
 Red. masses --      3.5526                 3.6910                 1.8025
 Frc consts  --      2.5536                 2.7180                 1.4410
 IR Inten    --    167.2526               171.1904                52.1923

                     34                     35                     36
                      A                      A                      A
 Frequencies --   1216.4939              1318.1463              1322.9683
 Red. masses --      1.1520                 5.3857                 3.5229
 Frc consts  --      1.0044                 5.5134                 3.6329
 IR Inten    --     23.3593               255.9773               178.7010

                     37                     38                     39
                      A                      A                      A
 Frequencies --   1340.2667              1364.3730              1433.6516
 Red. masses --      1.6545                 1.1772                 2.6966
 Frc consts  --      1.7511                 1.2911                 3.2655
 IR Inten    --     11.8430                 3.6791                16.0755

                     40                     41                     42
                      A                      A                      A
 Frequencies --   1468.2940              1485.4766              1528.3065
 Red. masses --      1.0509                 1.0603                 2.2868
 Frc consts  --      1.3349                 1.3786                 3.1471
 IR Inten    --     10.8071                21.6372                11.6280

                     43                     44                     45
                      A                      A                      A
 Frequencies --   1602.1586              1642.7788              3042.2085
 Red. masses --      6.5186                 5.4842                 1.0297
 Frc consts  --      9.8586                 8.7201                 5.6148
 IR Inten    --      6.2563               104.0550                19.3995

                     46                     47                     48
                      A                      A                      A
 Frequencies --   3125.6666              3135.4536              3175.2182
 Red. masses --      1.1084                 1.1030                 1.0887
 Frc consts  --      6.3799                 6.3889                 6.4671
 IR Inten    --      7.1093                 3.2325                 2.0369

                     49                     50                     51
                      A                      A                      A
 Frequencies --   3193.6956              3196.4551              3209.1125
 Red. masses --      1.0879                 1.0940                 1.0937
 Frc consts  --      6.5376                 6.5859                 6.6364
 IR Inten    --      1.2045                 2.5723                 3.2641

 - Thermochemistry -
 -------------------
 Temperature   298.150 Kelvin.  Pressure   1.00000 Atm.
 Atom     1 has atomic number  6 and mass  12.00000

 Molecular mass:   192.02206 amu.
 Principal axes and moments of inertia in atomic units:
                           1         2         3
     Eigenvalues --   763.550545014.448675446.97309
           X            0.99986  -0.01673   0.00025
           Y            0.01673   0.99986  -0.00004
           Z           -0.00024   0.00004   1.00000
 This molecule is an asymmetric top.
 Rotational symmetry number  1.
 Warning -- assumption of classical behavior for rotation
           may cause significant error
 Rotational temperatures (Kelvin)      0.11344     0.01727     0.01590
 Rotational constants (GHZ):           2.36362     0.35991     0.33133
 Zero-point vibrational energy     349420.9 (Joules/Mol)
                                   83.51361 (Kcal/Mol)
 Warning -- explicit consideration of  16 degrees of freedom as
           vibrations may cause significant error
 Vibrational temperatures:     23.06    68.22   109.81   199.48   275.99
          (Kelvin)            306.55   334.68   390.37   500.00   551.00
                              586.31   596.80   707.39   709.57   821.09
                              842.01   929.57  1002.01  1033.98  1049.15
                             1125.99  1195.51  1205.77  1387.47  1401.09
                             1414.31  1423.21  1478.30  1543.30  1578.89
                             1589.17  1608.51  1675.95  1750.26  1896.52
                             1903.45  1928.34  1963.03  2062.70  2112.54
                             2137.27  2198.89  2305.15  2363.59  4377.05
                             4497.13  4511.21  4568.43  4595.01  4598.98
                             4617.19

 Zero-point correction=                           0.133087 (Hartree/Particle)
 Thermal correction to Energy=                    0.144363
 Thermal correction to Enthalpy=                  0.145307
 Thermal correction to Gibbs Free Energy=         0.093634
 Sum of electronic and zero-point Energies=          -1006.865758
 Sum of electronic and thermal Energies=             -1006.854483
 Sum of electronic and thermal Enthalpies=           -1006.853539
 Sum of electronic and thermal Free Energies=        -1006.905212

                     E (Thermal)             CV                S
                      KCal/Mol        Cal/Mol-Kelvin    Cal/Mol-Kelvin
 Total                   90.589             41.334            108.755
 Electronic               0.000              0.000              0.000
 Translational            0.889              2.981             41.663
 Rotational               0.889              2.981             31.412
 Vibrational             88.811             35.373             35.680
 Vibration     1          0.593              1.986              7.074
 Vibration     2          0.595              1.979              4.922
 Vibration     3          0.599              1.965              3.983
 Vibration     4          0.614              1.915              2.822
 Vibration     5          0.634              1.851              2.210
 Vibration     6          0.644              1.821              2.017
 Vibration     7          0.653              1.791              1.859
 Vibration     8          0.675              1.726              1.588
 Vibration     9          0.725              1.580              1.177
 Vibration    10          0.752              1.507              1.027
 Vibration    11          0.772              1.454              0.935
 Vibration    12          0.778              1.438              0.910
 Vibration    13          0.847              1.269              0.679
 Vibration    14          0.849              1.265              0.675
 Vibration    15          0.927              1.095              0.503
 Vibration    16          0.942              1.063              0.476

 Optimization completed.
    -- Stationary point found.
 Normal termination of Gaussian 09 at Tue Dec 20 16:58:06 2022.
