 Gaussian 09, Revision D.01,
 Gaussian 09:  ES64L-G09RevD.01 24-Apr-2013

 ----------------------------------------------------------------------
 # opt freq b3lyp/6-311+g(d,p) geom=connectivity pop=(hirshfeld,chelpg,
 mbs,npa)
 ----------------------------------------------------------------------

 -------------------
 Title Card Required
 -------------------
 Symbolic Z-matrix:
 Charge =  0 Multiplicity = 1

 SCF Done:  E(RB3LYP) =  -987.573360576     A.U. after   12 cycles
 SCF Done:  E(RB3LYP) =  -987.585002237     A.U. after   10 cycles
 SCF Done:  E(RB3LYP) =  -987.586416883     A.U. after   10 cycles
 SCF Done:  E(RB3LYP) =  -987.586526873     A.U. after    9 cycles
 SCF Done:  E(RB3LYP) =  -987.586542863     A.U. after    8 cycles
 SCF Done:  E(RB3LYP) =  -987.586544930     A.U. after    8 cycles
 SCF Done:  E(RB3LYP) =  -987.586545122     A.U. after    6 cycles
 Optimization completed.
    -- Stationary point found.
 Normal termination of Gaussian 09 at Mon Jan  9 17:30:38 2023.

 ----------------------------------------------------------------------
 #N Geom=AllCheck Guess=TCheck SCRF=Check GenChk RB3LYP/6-311+G(d,p) Fr
 eq
 ----------------------------------------------------------------------

 Structure from the checkpoint file:  "methylchlorosilanes4_Suginome.chk"
 -------------------
 Title Card Required
 -------------------
 Charge =  0 Multiplicity = 1

                         Standard orientation:
 ---------------------------------------------------------------------
 Center     Atomic      Atomic             Coordinates (Angstroms)
 Number     Number       Type             X           Y           Z
 ---------------------------------------------------------------------
      1         14           0        1.083718    0.284050    0.000000
      2         17           0        2.660579   -1.123332    0.000000
      3          6           0        1.278118    1.324100   -1.550263
      4          1           0        1.206239    0.708922   -2.451014
      5          1           0        0.499481    2.092056   -1.601223
      6          1           0        2.248037    1.828168   -1.563403
      7          6           0       -0.518447   -0.708305    0.000000
      8          1           0       -0.505601   -1.369892    0.874822
      9          1           0       -0.505601   -1.369892   -0.874822
     10          6           0        1.278118    1.324100    1.550263
     11          1           0        2.248037    1.828168    1.563403
     12          1           0        0.499481    2.092056    1.601223
     13          1           0        1.206239    0.708922    2.451014
     14          6           0       -1.810433    0.131747    0.000000
     15          1           0       -1.828475    0.791402   -0.876639
     16          1           0       -1.828475    0.791402    0.876639
     17          6           0       -3.086824   -0.720911    0.000000
     18          1           0       -3.075775   -1.379899    0.876294
     19          1           0       -3.075775   -1.379899   -0.876294
     20          6           0       -4.370686    0.113533    0.000000
     21          1           0       -4.424549    0.757946   -0.883234
     22          1           0       -5.259679   -0.523059    0.000000
     23          1           0       -4.424549    0.757946    0.883234
 ---------------------------------------------------------------------

 SCF Done:  E(RB3LYP) =  -987.586545122     A.U. after    1 cycles

 The electronic state is 1-A.
 Alpha  occ. eigenvalues -- -101.52297 -66.12269 -10.17856 -10.17166 -10.16350
 Alpha  occ. eigenvalues --  -10.16314 -10.15919 -10.15919  -9.43832  -7.20014
 Alpha  occ. eigenvalues --   -7.19439  -7.19438  -5.29303  -3.65414  -3.64971
 Alpha  occ. eigenvalues --   -3.64956  -0.81175  -0.80213  -0.73598  -0.71185
 Alpha  occ. eigenvalues --   -0.69469  -0.63911  -0.58918  -0.48656  -0.48162
 Alpha  occ. eigenvalues --   -0.44002  -0.42883  -0.42767  -0.42273  -0.41038
 Alpha  occ. eigenvalues --   -0.40202  -0.39957  -0.37210  -0.36622  -0.35101
 Alpha  occ. eigenvalues --   -0.34333  -0.33860  -0.33376  -0.32441  -0.29776
 Alpha  occ. eigenvalues --   -0.28793
 Alpha virt. eigenvalues --   -0.01193   0.00896   0.01153   0.01366   0.02525
 Alpha virt. eigenvalues --    0.03311   0.03839   0.04164   0.05199   0.05296
 Alpha virt. eigenvalues --    0.05607   0.06797   0.07047   0.07478   0.08125

 Mulliken charges:
               1
     1  Si   0.768642
     2  Cl  -0.183739
     3  C   -0.714194
     4  H    0.176787
     5  H    0.161408
     6  H    0.175350
     7  C   -0.481327
     8  H    0.175963
     9  H    0.175963
    10  C   -0.714194
    11  H    0.175350
    12  H    0.161408
    13  H    0.176787
    14  C   -0.246010
    15  H    0.138684
    16  H    0.138684
    17  C   -0.179886
    18  H    0.137981
    19  H    0.137981
    20  C   -0.587652
    21  H    0.132901
    22  H    0.140210
    23  H    0.132901
 Sum of Mulliken charges =   0.00000

 Dipole moment (field-independent basis, Debye):
    X=             -2.1593    Y=              1.6083    Z=              0.0000  Tot=              2.6925
 Quadrupole moment (field-independent basis, Debye-Ang):
   XX=            -73.9701   YY=            -68.7518   ZZ=            -66.7585
   XY=              4.5292   XZ=              0.0000   YZ=              0.0000

  Exact polarizability: 127.406  -3.076 103.951   0.000   0.000  99.563
 Approx polarizability: 152.553  -7.927 149.057   0.000   0.000 141.677

 ESP charges:
               1
     1  Si   0.738138
     2  Cl  -0.333576
     3  C   -0.402408
     4  H    0.089184
     5  H    0.082073
     6  H    0.088094
     7  C   -0.336992
     8  H    0.053485
     9  H    0.053485
    10  C   -0.402408
    11  H    0.088094
    12  H    0.082073
    13  H    0.089184
    14  C    0.173507
    15  H   -0.033000
    16  H   -0.033000
    17  C    0.129043
    18  H   -0.020283
    19  H   -0.020283
    20  C   -0.238209
    21  H    0.046013
    22  H    0.061773
    23  H    0.046013
 Sum of ESP charges =   0.00000

 Summary of Natural Population Analysis:

                                       Natural Population
                Natural  -----------------------------------------------
    Atom  No    Charge         Core      Valence    Rydberg      Total
 -----------------------------------------------------------------------
     Si    1    1.57280      9.99819     2.37899    0.05002    12.42720
     Cl    2   -0.39674      9.99970     7.38666    0.01038    17.39674
      C    3   -1.09175      1.99930     5.07956    0.01290     7.09175
      H    4    0.23714      0.00000     0.76191    0.00095     0.76286
      H    5    0.23025      0.00000     0.76857    0.00118     0.76975
      H    6    0.23792      0.00000     0.76111    0.00097     0.76208
      C    7   -0.86756      1.99922     4.84796    0.02038     6.86756
      H    8    0.22788      0.00000     0.77037    0.00174     0.77212
      H    9    0.22788      0.00000     0.77037    0.00174     0.77212
      C   10   -1.09175      1.99930     5.07956    0.01290     7.09175
      H   11    0.23792      0.00000     0.76111    0.00097     0.76208
      H   12    0.23025      0.00000     0.76857    0.00118     0.76975
      H   13    0.23714      0.00000     0.76191    0.00095     0.76286
      C   14   -0.38363      1.99929     4.36929    0.01505     6.38363
      H   15    0.18986      0.00000     0.80817    0.00197     0.81014
      H   16    0.18986      0.00000     0.80817    0.00197     0.81014
      C   17   -0.38185      1.99932     4.36818    0.01436     6.38185
      H   18    0.18992      0.00000     0.80792    0.00216     0.81008
      H   19    0.18992      0.00000     0.80792    0.00216     0.81008
      C   20   -0.57424      1.99938     4.56573    0.00913     6.57424
      H   21    0.19338      0.00000     0.80494    0.00168     0.80662
      H   22    0.20204      0.00000     0.79678    0.00119     0.79796
      H   23    0.19338      0.00000     0.80494    0.00168     0.80662
 =======================================================================
   * Total *    0.00000     31.99370    49.83869    0.16761    82.00000

                      1                      2                      3
                      A                      A                      A
 Frequencies --     46.9208                74.6160                75.5579
 Red. masses --      2.5444                 1.7142                 4.3846
 Frc consts  --      0.0033                 0.0056                 0.0147
 IR Inten    --      0.4313                 0.0312                 1.2233

                      4                      5                      6
                      A                      A                      A
 Frequencies --    127.4351               157.7286               163.6268
 Red. masses --      2.0724                 1.0662                 1.2370
 Frc consts  --      0.0198                 0.0156                 0.0195
 IR Inten    --      0.0003                 0.0742                 0.3209

                      7                      8                      9
                      A                      A                      A
 Frequencies --    172.3288               179.8185               204.9972
 Red. masses --      2.2530                 2.7711                 2.7285
 Frc consts  --      0.0394                 0.0528                 0.0676
 IR Inten    --      1.0963                 0.7716                 2.1661

                     10                     11                     12
                      A                      A                      A
 Frequencies --    224.3033               228.8053               251.7673
 Red. masses --      3.0355                 1.3711                 1.8207
 Frc consts  --      0.0900                 0.0423                 0.0680
 IR Inten    --      1.1221                 2.2932                 3.5286

                     13                     14                     15
                      A                      A                      A
 Frequencies --    305.5302               404.0572               481.1307
 Red. masses --      3.8639                 3.0052                 7.5759
 Frc consts  --      0.2125                 0.2891                 1.0333
 IR Inten    --      4.8125                 2.9324                83.8519

                     16                     17                     18
                      A                      A                      A
 Frequencies --    633.1409               671.3940               699.6182
 Red. masses --      3.7282                 1.2798                 1.7894
 Frc consts  --      0.8805                 0.3399                 0.5160
 IR Inten    --     25.6637                 0.0637                 8.2887

                     19                     20                     21
                      A                      A                      A
 Frequencies --    743.8996               747.6098               776.7737
 Red. masses --      1.1150                 3.0141                 1.3741
 Frc consts  --      0.3635                 0.9926                 0.4885
 IR Inten    --      6.5834                18.9918                10.2088

                     22                     23                     24
                      A                      A                      A
 Frequencies --    804.0729               838.6506               881.2505
 Red. masses --      1.5450                 1.4977                 1.6101
 Frc consts  --      0.5885                 0.6206                 0.7367
 IR Inten    --     42.4977               104.5642                87.8161

                     25                     26                     27
                      A                      A                      A
 Frequencies --    894.9449               902.7529              1004.6932
 Red. masses --      1.8739                 1.3338                 3.7955
 Frc consts  --      0.8843                 0.6404                 2.2573
 IR Inten    --     14.2965                27.0076                12.7140

                     28                     29                     30
                      A                      A                      A
 Frequencies --   1050.2701              1053.8478              1098.3631
 Red. masses --      1.1375                 2.6398                 1.8371
 Frc consts  --      0.7392                 1.7273                 1.3058
 IR Inten    --      9.0198                 1.2130                19.3882

                     31                     32                     33
                      A                      A                      A
 Frequencies --   1224.9046              1228.6586              1298.9976
 Red. masses --      1.4536                 1.5082                 1.2504
 Frc consts  --      1.2850                 1.3414                 1.2432
 IR Inten    --     10.7002                 0.9550                41.6514

                     34                     35                     36
                      A                      A                      A
 Frequencies --   1305.7536              1308.2894              1334.2176
 Red. masses --      1.2297                 1.1921                 1.3605
 Frc consts  --      1.2353                 1.2021                 1.4269
 IR Inten    --     21.8708                 2.5436                 7.9924

                     37                     38                     39
                      A                      A                      A
 Frequencies --   1342.9924              1388.8427              1412.5581
 Red. masses --      1.0600                 1.4714                 1.2337
 Frc consts  --      1.1264                 1.6722                 1.4503
 IR Inten    --      0.5080                 0.4871                 3.6017

                     40                     41                     42
                      A                      A                      A
 Frequencies --   1452.0686              1453.4276              1458.1734
 Red. masses --      1.0512                 1.0798                 1.0516
 Frc consts  --      1.3059                 1.3440                 1.3175
 IR Inten    --      0.1864                 2.8362                 1.2834

                     43                     44                     45
                      A                      A                      A
 Frequencies --   1461.3724              1471.1596              1488.7750
 Red. masses --      1.0467                 1.0511                 1.0628
 Frc consts  --      1.3171                 1.3403                 1.3879
 IR Inten    --      7.5995                 7.5186                 1.1900

                     46                     47                     48
                      A                      A                      A
 Frequencies --   1497.1764              1498.9938              1510.8485
 Red. masses --      1.0657                 1.0396                 1.0884
 Frc consts  --      1.4075                 1.3764                 1.4638
 IR Inten    --      0.1947                 8.7340                 8.2141

                     49                     50                     51
                      A                      A                      A
 Frequencies --   2999.6096              3009.2127              3015.5181
 Red. masses --      1.0571                 1.0593                 1.0560
 Frc consts  --      5.6041                 5.6515                 5.6579
 IR Inten    --      3.0174                 5.4611                30.3388

                     52                     53                     54
                      A                      A                      A
 Frequencies --   3018.7742              3019.8306              3024.8665
 Red. masses --      1.0388                 1.0979                 1.0377
 Frc consts  --      5.5773                 5.8991                 5.5941
 IR Inten    --     61.3804                 0.2495                 3.2432

                     55                     56                     57
                      A                      A                      A
 Frequencies --   3026.3553              3040.7928              3057.0334
 Red. masses --      1.0353                 1.1035                 1.1028
 Frc consts  --      5.5867                 6.0115                 6.0724
 IR Inten    --      8.2312                 4.6170                31.2512

                     58                     59                     60
                      A                      A                      A
 Frequencies --   3079.3536              3084.6016              3094.1322
 Red. masses --      1.1026                 1.1007                 1.0990
 Frc consts  --      6.1602                 6.1706                 6.1991
 IR Inten    --     70.6785                41.9542                 1.1761

                     61                     62                     63
                      A                      A                      A
 Frequencies --   3095.8858              3106.2103              3106.9132
 Red. masses --      1.0990                 1.1009                 1.1008
 Frc consts  --      6.2058                 6.2584                 6.2604
 IR Inten    --     18.9064                 4.1143                11.9547

 - Thermochemistry -
 -------------------
 Temperature   298.150 Kelvin.  Pressure   1.00000 Atm.
 Atom     1 has atomic number 14 and mass  27.97693

 Molecular mass:   150.06316 amu.
 Principal axes and moments of inertia in atomic units:
                           1         2         3
     Eigenvalues --   761.654973203.278723350.03180
           X            0.99970   0.02468   0.00000
           Y           -0.02468   0.99970   0.00000
           Z            0.00000   0.00000   1.00000
 This molecule is an asymmetric top.
 Rotational symmetry number  1.
 Warning -- assumption of classical behavior for rotation
           may cause significant error
 Rotational temperatures (Kelvin)      0.11372     0.02704     0.02585
 Rotational constants (GHZ):           2.36950     0.56340     0.53872
 Zero-point vibrational energy     519276.2 (Joules/Mol)
                                  124.11000 (Kcal/Mol)
 Warning -- explicit consideration of  15 degrees of freedom as
           vibrations may cause significant error
 Vibrational temperatures:     67.51   107.36   108.71   183.35   226.94
          (Kelvin)            235.42   247.94   258.72   294.94   322.72
                              329.20   362.24   439.59   581.35   692.24
                              910.95   965.99  1006.59  1070.30  1075.64
                             1117.60  1156.88  1206.63  1267.92  1287.62
                             1298.86  1445.53  1511.10  1516.25  1580.30
                             1762.36  1767.76  1868.97  1878.69  1882.33
                             1919.64  1932.26  1998.23  2032.35  2089.20
                             2091.16  2097.98  2102.59  2116.67  2142.01
                             2154.10  2156.72  2173.77  4315.76  4329.58
                             4338.65  4343.34  4344.86  4352.10  4354.24
                             4375.02  4398.38  4430.50  4438.05  4451.76
                             4454.28  4469.14  4470.15

 Zero-point correction=                           0.197782 (Hartree/Particle)
 Thermal correction to Energy=                    0.210425
 Thermal correction to Enthalpy=                  0.211369
 Thermal correction to Gibbs Free Energy=         0.158578
 Sum of electronic and zero-point Energies=           -987.388763
 Sum of electronic and thermal Energies=              -987.376120
 Sum of electronic and thermal Enthalpies=            -987.375176
 Sum of electronic and thermal Free Energies=         -987.427968

                     E (Thermal)             CV                S
                      KCal/Mol        Cal/Mol-Kelvin    Cal/Mol-Kelvin
 Total                  132.044             43.872            111.109
 Electronic               0.000              0.000              0.000
 Translational            0.889              2.981             40.928
 Rotational               0.889              2.981             30.481
 Vibrational            130.266             37.910             39.700
 Vibration     1          0.595              1.979              4.943
 Vibration     2          0.599              1.966              4.028
 Vibration     3          0.599              1.965              4.003
 Vibration     4          0.611              1.926              2.984
 Vibration     5          0.621              1.894              2.577
 Vibration     6          0.623              1.887              2.507
 Vibration     7          0.626              1.877              2.410
 Vibration     8          0.629              1.867              2.330
 Vibration     9          0.640              1.833              2.088
 Vibration    10          0.649              1.804              1.924
 Vibration    11          0.651              1.797              1.888
 Vibration    12          0.664              1.760              1.718
 Vibration    13          0.696              1.663              1.386
 Vibration    14          0.769              1.461              0.948
 Vibration    15          0.837              1.292              0.707

 Optimization completed.
    -- Stationary point found.
 Normal termination of Gaussian 09 at Mon Jan  9 17:32:39 2023.
