 Gaussian 09, Revision D.01,
 Gaussian 09:  ES64L-G09RevD.01 24-Apr-2013

 ----------------------------------------------------------------------
 # opt freq b3lyp/6-311+g(d,p) geom=connectivity pop=(hirshfeld,chelpg,
 mbs,npa)
 ----------------------------------------------------------------------

 -------------------
 Title Card Required
 -------------------
 Symbolic Z-matrix:
 Charge =  0 Multiplicity = 1

 SCF Done:  E(RB3LYP) =  -1144.86367888     A.U. after   12 cycles
 SCF Done:  E(RB3LYP) =  -1144.88110084     A.U. after   10 cycles
 SCF Done:  E(RB3LYP) =  -1144.88373285     A.U. after   10 cycles
 SCF Done:  E(RB3LYP) =  -1144.88391926     A.U. after    9 cycles
 SCF Done:  E(RB3LYP) =  -1144.88393970     A.U. after    9 cycles
 SCF Done:  E(RB3LYP) =  -1144.88394311     A.U. after    8 cycles
 SCF Done:  E(RB3LYP) =  -1144.88394341     A.U. after    7 cycles
 Optimization completed.
    -- Stationary point found.
 Normal termination of Gaussian 09 at Mon Jan  9 17:34:16 2023.

 ----------------------------------------------------------------------
 #N Geom=AllCheck Guess=TCheck SCRF=Check GenChk RB3LYP/6-311+G(d,p) Fr
 eq
 ----------------------------------------------------------------------

 Structure from the checkpoint file:  "methylchlorosilanes5_Suginome.chk"
 -------------------
 Title Card Required
 -------------------
 Charge =  0 Multiplicity = 1

                         Standard orientation:
 ---------------------------------------------------------------------
 Center     Atomic      Atomic             Coordinates (Angstroms)
 Number     Number       Type             X           Y           Z
 ---------------------------------------------------------------------
      1         14           0        3.265057    0.289341    0.000000
      2         17           0        4.803878   -1.159875    0.000000
      3          6           0        3.488224    1.323854   -1.550197
      4          1           0        3.399332    0.711053   -2.451050
      5          1           0        2.731291    2.113206   -1.601344
      6          1           0        4.471814    1.800704   -1.563242
      7          6           0        1.636570   -0.659004    0.000000
      8          1           0        1.631311   -1.320697    0.874785
      9          1           0        1.631311   -1.320697   -0.874785
     10          6           0        3.488224    1.323854    1.550197
     11          1           0        4.471814    1.800704    1.563242
     12          1           0        2.731291    2.113206    1.601344
     13          1           0        3.399332    0.711053    2.451050
     14          6           0        0.368418    0.216932    0.000000
     15          1           0        0.369938    0.876670   -0.876534
     16          1           0        0.369938    0.876671    0.876534
     17          6           0       -0.930953   -0.599936    0.000000
     18          1           0       -0.939175   -1.259746    0.876818
     19          1           0       -0.939175   -1.259746   -0.876818
     20          6           0       -2.197315    0.263499    0.000000
     21          1           0       -2.185565    0.923742   -0.876992
     22          1           0       -2.185565    0.923742    0.876992
     23          6           0       -3.495771   -0.551647    0.000000
     24          1           0       -3.507993   -1.211924    0.876796
     25          1           0       -3.507993   -1.211924   -0.876796
     26          6           0       -4.762345    0.311503    0.000000
     27          1           0       -4.750794    0.972132   -0.876849
     28          1           0       -4.750794    0.972132    0.876849
     29          6           0       -6.062005   -0.501565    0.000000
     30          1           0       -6.074351   -1.161186    0.876252
     31          1           0       -6.074351   -1.161186   -0.876252
     32          6           0       -7.321237    0.370090    0.000000
     33          1           0       -7.354819    1.016283   -0.882937
     34          1           0       -8.229567   -0.238863    0.000000
     35          1           0       -7.354819    1.016283    0.882937
 ---------------------------------------------------------------------

 SCF Done:  E(RB3LYP) =  -1144.88394341     A.U. after    1 cycles

 The electronic state is 1-A.
 Alpha  occ. eigenvalues -- -101.52263 -66.12238 -10.17813 -10.16900 -10.16751
 Alpha  occ. eigenvalues --  -10.16623 -10.16596 -10.16488 -10.16275 -10.15900
 Alpha  occ. eigenvalues --  -10.15892 -10.15892  -9.43800  -7.19981  -7.19407
 Alpha  occ. eigenvalues --   -7.19406  -5.29271  -3.65382  -3.64939  -3.64923
 Alpha  occ. eigenvalues --   -0.81815  -0.80947  -0.79374  -0.75655  -0.71856
 Alpha  occ. eigenvalues --   -0.70182  -0.69441  -0.64967  -0.60241  -0.58434
 Alpha  occ. eigenvalues --   -0.57917  -0.49161  -0.48640  -0.47168  -0.44114
 Alpha  occ. eigenvalues --   -0.43975  -0.43162  -0.42488  -0.42114  -0.41240
 Alpha  occ. eigenvalues --   -0.40760  -0.40043  -0.39699  -0.38719  -0.36824
 Alpha  occ. eigenvalues --   -0.36653  -0.35211  -0.34567  -0.34492  -0.33520
 Alpha  occ. eigenvalues --   -0.33087  -0.33061  -0.32839  -0.32623  -0.31704
 Alpha  occ. eigenvalues --   -0.29745  -0.28523
 Alpha virt. eigenvalues --   -0.01173   0.00701   0.01046   0.01050   0.01647
 Alpha virt. eigenvalues --    0.02332   0.02610   0.02766   0.03519   0.04393
 Alpha virt. eigenvalues --    0.04452   0.04992   0.05319   0.05369   0.06034

 Mulliken charges:
               1
     1  Si   0.874245
     2  Cl  -0.206532
     3  C   -0.735087
     4  H    0.179738
     5  H    0.164344
     6  H    0.175899
     7  C   -0.825066
     8  H    0.180575
     9  H    0.180575
    10  C   -0.735087
    11  H    0.175899
    12  H    0.164344
    13  H    0.179738
    14  C   -0.143267
    15  H    0.140898
    16  H    0.140898
    17  C   -0.194951
    18  H    0.144452
    19  H    0.144452
    20  C   -0.007620
    21  H    0.139969
    22  H    0.139969
    23  C   -0.238175
    24  H    0.141162
    25  H    0.141162
    26  C   -0.394920
    27  H    0.137989
    28  H    0.137989
    29  C   -0.248066
    30  H    0.135230
    31  H    0.135230
    32  C   -0.628269
    33  H    0.132263
    34  H    0.137759
    35  H    0.132263
 Sum of Mulliken charges =   0.00000

 Dipole moment (field-independent basis, Debye):
    X=             -2.1928    Y=              1.6516    Z=              0.0000  Tot=              2.7452
 Quadrupole moment (field-independent basis, Debye-Ang):
   XX=           -110.4678   YY=            -96.5314   ZZ=            -93.2459
   XY=              8.5116   XZ=              0.0000   YZ=              0.0000

  Exact polarizability: 197.669  -3.904 145.655   0.000   0.000 137.489
 Approx polarizability: 215.905  -7.986 214.627   0.000   0.000 205.008

 ESP charges:
               1
     1  Si   0.712232
     2  Cl  -0.333888
     3  C   -0.395166
     4  H    0.087924
     5  H    0.080536
     6  H    0.088410
     7  C   -0.275481
     8  H    0.040161
     9  H    0.040161
    10  C   -0.395166
    11  H    0.088410
    12  H    0.080536
    13  H    0.087924
    14  C    0.182792
    15  H   -0.040533
    16  H   -0.040533
    17  C    0.008125
    18  H   -0.003799
    19  H   -0.003799
    20  C    0.014066
    21  H   -0.015978
    22  H   -0.015978
    23  C    0.035802
    24  H   -0.019807
    25  H   -0.019807
    26  C    0.016889
    27  H   -0.012037
    28  H   -0.012037
    29  C    0.181366
    30  H   -0.041918
    31  H   -0.041918
    32  C   -0.185517
    33  H    0.033337
    34  H    0.041354
    35  H    0.033337
 Sum of ESP charges =   0.00000

 Summary of Natural Population Analysis:

                                       Natural Population
                Natural  -----------------------------------------------
    Atom  No    Charge         Core      Valence    Rydberg      Total
 -----------------------------------------------------------------------
     Si    1    1.57328      9.99819     2.37851    0.05002    12.42672
     Cl    2   -0.39699      9.99970     7.38690    0.01039    17.39699
      C    3   -1.09173      1.99930     5.07954    0.01290     7.09173
      H    4    0.23704      0.00000     0.76200    0.00095     0.76296
      H    5    0.23022      0.00000     0.76859    0.00119     0.76978
      H    6    0.23781      0.00000     0.76122    0.00097     0.76219
      C    7   -0.86642      1.99922     4.84709    0.02011     6.86642
      H    8    0.22779      0.00000     0.77052    0.00169     0.77221
      H    9    0.22779      0.00000     0.77052    0.00169     0.77221
      C   10   -1.09173      1.99930     5.07954    0.01290     7.09173
      H   11    0.23781      0.00000     0.76122    0.00097     0.76219
      H   12    0.23022      0.00000     0.76859    0.00119     0.76978
      H   13    0.23704      0.00000     0.76200    0.00095     0.76296
      C   14   -0.38053      1.99929     4.36622    0.01502     6.38053
      H   15    0.19012      0.00000     0.80781    0.00207     0.80988
      H   16    0.19012      0.00000     0.80781    0.00207     0.80988
      C   17   -0.37541      1.99928     4.36040    0.01573     6.37541
      H   18    0.19024      0.00000     0.80743    0.00233     0.80976
      H   19    0.19024      0.00000     0.80743    0.00233     0.80976
      C   20   -0.37707      1.99928     4.36349    0.01430     6.37707
      H   21    0.18835      0.00000     0.80923    0.00241     0.81165
      H   22    0.18835      0.00000     0.80923    0.00241     0.81165
      C   23   -0.37708      1.99928     4.36324    0.01456     6.37708
      H   24    0.18891      0.00000     0.80862    0.00247     0.81109
      H   25    0.18891      0.00000     0.80862    0.00247     0.81109
      C   26   -0.37889      1.99928     4.36509    0.01452     6.37889
      H   27    0.18779      0.00000     0.80988    0.00233     0.81221
      H   28    0.18779      0.00000     0.80988    0.00233     0.81221
      C   29   -0.38256      1.99931     4.37011    0.01313     6.38256
      H   30    0.18792      0.00000     0.80980    0.00228     0.81208
      H   31    0.18792      0.00000     0.80980    0.00228     0.81208
      C   32   -0.57261      1.99938     4.56408    0.00915     6.57261
      H   33    0.19285      0.00000     0.80544    0.00171     0.80715
      H   34    0.19967      0.00000     0.79912    0.00121     0.80033
      H   35    0.19285      0.00000     0.80544    0.00171     0.80715
 =======================================================================
   * Total *    0.00000     39.99082    73.76442    0.24476   114.00000

                      1                      2                      3
                      A                      A                      A
 Frequencies --     26.8801                38.0281                47.1295
 Red. masses --      3.9195                 4.5174                 1.6699
 Frc consts  --      0.0017                 0.0038                 0.0022
 IR Inten    --      0.3647                 0.6169                 0.1162

                      4                      5                      6
                      A                      A                      A
 Frequencies --     63.2433                91.7591                95.6601
 Red. masses --      2.8504                 4.2535                 1.6315
 Frc consts  --      0.0067                 0.0211                 0.0088
 IR Inten    --      0.1067                 0.9380                 0.0118

                      7                      8                      9
                      A                      A                      A
 Frequencies --    116.0890               143.3894               151.2519
 Red. masses --      2.3638                 4.7227                 1.7230
 Frc consts  --      0.0188                 0.0572                 0.0232
 IR Inten    --      0.0307                 0.9993                 0.0501

                     10                     11                     12
                      A                      A                      A
 Frequencies --    153.4641               163.3906               166.3105
 Red. masses --      1.0960                 1.0516                 2.1032
 Frc consts  --      0.0152                 0.0165                 0.0343
 IR Inten    --      0.0681                 0.0083                 0.0215

                     13                     14                     15
                      A                      A                      A
 Frequencies --    174.3428               181.7383               209.4805
 Red. masses --      3.0289                 2.8129                 2.7855
 Frc consts  --      0.0542                 0.0547                 0.0720
 IR Inten    --      0.0862                 0.9556                 0.8653

                     16                     17                     18
                      A                      A                      A
 Frequencies --    240.5083               245.7647               250.9621
 Red. masses --      1.1527                 2.4668                 3.2112
 Frc consts  --      0.0393                 0.0878                 0.1192
 IR Inten    --      0.2437                 5.2559                 5.5987

                     19                     20                     21
                      A                      A                      A
 Frequencies --    304.7754               347.5769               448.1440
 Red. masses --      3.5623                 3.6268                 3.1793
 Frc consts  --      0.1950                 0.2582                 0.3762
 IR Inten    --      2.4199                 1.3923                 3.5328

                     22                     23                     24
                      A                      A                      A
 Frequencies --    470.6092               493.4788               633.3911
 Red. masses --      4.6114                 4.0252                 3.7118
 Frc consts  --      0.6017                 0.5775                 0.8774
 IR Inten    --     36.1372                47.9649                25.7806

                     25                     26                     27
                      A                      A                      A
 Frequencies --    671.0192               699.4286               733.6780
 Red. masses --      1.2806                 1.7732                 1.0605
 Frc consts  --      0.3397                 0.5111                 0.3363
 IR Inten    --      0.0391                 7.9557                 4.7005

                     28                     29                     30
                      A                      A                      A
 Frequencies --    738.6432               749.0403               761.0455
 Red. masses --      1.0925                 2.9812                 1.1614
 Frc consts  --      0.3512                 0.9855                 0.3963
 IR Inten    --      0.4349                20.3378                 3.1679

                     31                     32                     33
                      A                      A                      A
 Frequencies --    777.6128               803.6831               839.6641
 Red. masses --      1.4386                 1.4239                 1.4908
 Frc consts  --      0.5125                 0.5419                 0.6193
 IR Inten    --     17.7168                28.8547               119.7762

                     34                     35                     36
                      A                      A                      A
 Frequencies --    857.2469               881.1481               896.6508
 Red. masses --      1.3432                 1.6129                 1.9512
 Frc consts  --      0.5816                 0.7378                 0.9243
 IR Inten    --     23.0778                93.2114                 0.4063

                     37                     38                     39
                      A                      A                      A
 Frequencies --    932.2187               980.4137              1007.3376
 Red. masses --      1.2827                 5.0375                 3.7625
 Frc consts  --      0.6567                 2.8529                 2.2494
 IR Inten    --      6.9479                12.3049                 5.5772

                     40                     41                     42
                      A                      A                      A
 Frequencies --   1011.2719              1039.3576              1046.0361
 Red. masses --      1.1988                 2.9760                 2.9869
 Frc consts  --      0.7223                 1.8942                 1.9256
 IR Inten    --      6.9196                 2.3870                 3.7604

                     43                     44                     45
                      A                      A                      A
 Frequencies --   1062.3317              1066.8847              1072.8931
 Red. masses --      2.4313                 2.2834                 1.0630
 Frc consts  --      1.6166                 1.5313                 0.7209
 IR Inten    --      0.3613                 0.5285                 5.3513

                     46                     47                     48
                      A                      A                      A
 Frequencies --   1130.9633              1208.1313              1210.0942
 Red. masses --      2.3003                 1.3806                 1.7812
 Frc consts  --      1.7335                 1.1873                 1.5368
 IR Inten    --     10.1409                13.1518                 0.3250

                     49                     50                     51
                      A                      A                      A
 Frequencies --   1248.3634              1260.0097              1290.5641
 Red. masses --      1.4327                 1.3291                 1.2723
 Frc consts  --      1.3155                 1.2433                 1.2485
 IR Inten    --      0.5555                 6.2843                 0.0069

                     52                     53                     54
                      A                      A                      A
 Frequencies --   1298.2196              1304.5629              1308.9494
 Red. masses --      1.2505                 1.2336                 1.3221
 Frc consts  --      1.2417                 1.2370                 1.3346
 IR Inten    --     43.0776                21.9654                 1.3544

                     55                     56                     57
                      A                      A                      A
 Frequencies --   1324.8164              1330.4067              1341.0057
 Red. masses --      1.1594                 1.0365                 1.0799
 Frc consts  --      1.1990                 1.0809                 1.1442
 IR Inten    --      0.9280                 0.1489                 0.0270

                     58                     59                     60
                      A                      A                      A
 Frequencies --   1346.7788              1353.1968              1383.3899
 Red. masses --      1.0948                 1.3676                 1.4343
 Frc consts  --      1.1699                 1.4755                 1.6172
 IR Inten    --      0.0000                 3.9497                 0.2300

                     61                     62                     63
                      A                      A                      A
 Frequencies --   1398.1185              1400.3119              1413.7439
 Red. masses --      1.5483                 1.5979                 1.2487
 Frc consts  --      1.7832                 1.8461                 1.4704
 IR Inten    --      0.1078                 1.3490                 2.3265

                     64                     65                     66
                      A                      A                      A
 Frequencies --   1452.0804              1453.5515              1457.6123
 Red. masses --      1.0511                 1.0799                 1.0518
 Frc consts  --      1.3058                 1.3443                 1.3167
 IR Inten    --      0.1661                 2.5724                 1.3661

                     67                     68                     69
                      A                      A                      A
 Frequencies --   1461.2744              1470.6160              1485.8699
 Red. masses --      1.0467                 1.0516                 1.0731
 Frc consts  --      1.3169                 1.3400                 1.3959
 IR Inten    --      7.9503                 7.2318                 0.0878

                     70                     71                     72
                      A                      A                      A
 Frequencies --   1487.2370              1489.6796              1494.4204
 Red. masses --      1.0745                 1.0678                 1.0716
 Frc consts  --      1.4002                 1.3961                 1.4100
 IR Inten    --      0.1825                 0.6623                 0.1190

                     73                     74                     75
                      A                      A                      A
 Frequencies --   1499.4359              1502.0785              1509.9648
 Red. masses --      1.0396                 1.0827                 1.0929
 Frc consts  --      1.3771                 1.4392                 1.4682
 IR Inten    --      8.2367                 2.3791                 0.0541

                     76                     77                     78
                      A                      A                      A
 Frequencies --   1516.3081              2992.0514              2993.2741
 Red. masses --      1.0978                 1.0576                 1.0573
 Frc consts  --      1.4872                 5.5785                 5.5814
 IR Inten    --     12.4503                 0.3999                 0.4717

                     79                     80                     81
                      A                      A                      A
 Frequencies --   2997.5551              3000.3665              3006.2891
 Red. masses --      1.0579                 1.0584                 1.0594
 Frc consts  --      5.6005                 5.6138                 5.6413
 IR Inten    --      1.8285                 0.8873                 1.7395

                     82                     83                     84
                      A                      A                      A
 Frequencies --   3008.7491              3010.2864              3013.1785
 Red. masses --      1.0989                 1.0593                 1.1002
 Frc consts  --      5.8611                 5.6557                 5.8856
 IR Inten    --      0.2350                91.2084                 0.0421

                     85                     86                     87
                      A                      A                      A
 Frequencies --   3015.6710              3017.9532              3020.4000
 Red. masses --      1.0586                 1.0359                 1.1001
 Frc consts  --      5.6724                 5.5591                 5.9130
 IR Inten    --     80.6649                59.1116                 0.0120

                     88                     89                     90
                      A                      A                      A
 Frequencies --   3024.7159              3026.2944              3031.0822
 Red. masses --      1.0377                 1.0353                 1.1039
 Frc consts  --      5.5935                 5.5865                 5.9757
 IR Inten    --      2.8925                 8.0119                 0.7340

                     91                     92                     93
                      A                      A                      A
 Frequencies --   3042.3759              3051.3346              3059.9253
 Red. masses --      1.1050                 1.1047                 1.1037
 Frc consts  --      6.0264                 6.0598                 6.0885
 IR Inten    --      1.5929                47.7994               116.9983

                     94                     95                     96
                      A                      A                      A
 Frequencies --   3078.4266              3082.7985              3094.0620
 Red. masses --      1.1024                 1.1009                 1.0990
 Frc consts  --      6.1555                 6.1643                 6.1987
 IR Inten    --     76.1553                46.0122                 1.3133

                     97                     98                     99
                      A                      A                      A
 Frequencies --   3095.8031              3106.1444              3106.8461
 Red. masses --      1.0989                 1.1009                 1.1008
 Frc consts  --      6.2053                 6.2581                 6.2601
 IR Inten    --     19.7325                 4.0006                12.4683

 - Thermochemistry -
 -------------------
 Temperature   298.150 Kelvin.  Pressure   1.00000 Atm.
 Atom     1 has atomic number 14 and mass  27.97693

 Molecular mass:   206.12576 amu.
 Principal axes and moments of inertia in atomic units:
                           1         2         3
     Eigenvalues --   856.38476********************
           X            0.99995   0.00960   0.00000
           Y           -0.00960   0.99995   0.00000
           Z            0.00000   0.00000   1.00000
 This molecule is an asymmetric top.
 Rotational symmetry number  1.
 Warning -- assumption of classical behavior for rotation
           may cause significant error
 Rotational temperatures (Kelvin)      0.10114     0.00692     0.00681
 Rotational constants (GHZ):           2.10740     0.14415     0.14191
 Zero-point vibrational energy     817003.5 (Joules/Mol)
                                  195.26851 (Kcal/Mol)
 Warning -- explicit consideration of  23 degrees of freedom as
           vibrations may cause significant error
 Vibrational temperatures:     38.67    54.71    67.81    90.99   132.02
          (Kelvin)            137.63   167.03   206.31   217.62   220.80
                              235.08   239.28   250.84   261.48   301.40
                              346.04   353.60   361.08   438.50   500.09
                              644.78   677.10   710.01   911.31   965.45
                             1006.32  1055.60  1062.74  1077.70  1094.97
                             1118.81  1156.32  1208.09  1233.39  1267.77
                             1290.08  1341.25  1410.59  1449.33  1454.99
                             1495.40  1505.01  1528.46  1535.01  1543.65
                             1627.20  1738.23  1741.05  1796.11  1812.87
                             1856.83  1867.85  1876.97  1883.28  1906.11
                             1914.16  1929.41  1937.71  1946.95  1990.39
                             2011.58  2014.73  2034.06  2089.22  2091.33
                             2097.18  2102.45  2115.89  2137.83  2139.80
                             2143.31  2150.13  2157.35  2161.15  2172.50
                             2181.63  4304.89  4306.65  4312.81  4316.85
                             4325.37  4328.91  4331.13  4335.29  4338.87
                             4342.16  4345.68  4351.89  4354.16  4361.05
                             4377.29  4390.18  4402.54  4429.16  4435.45
                             4451.66  4454.16  4469.04  4470.05

 Zero-point correction=                           0.311180 (Hartree/Particle)
 Thermal correction to Energy=                    0.329255
 Thermal correction to Enthalpy=                  0.330199
 Thermal correction to Gibbs Free Energy=         0.263401
 Sum of electronic and zero-point Energies=          -1144.572763
 Sum of electronic and thermal Energies=             -1144.554688
 Sum of electronic and thermal Enthalpies=           -1144.553744
 Sum of electronic and thermal Free Energies=        -1144.620542

                     E (Thermal)             CV                S
                      KCal/Mol        Cal/Mol-Kelvin    Cal/Mol-Kelvin
 Total                  206.611             63.322            140.589
 Electronic               0.000              0.000              0.000
 Translational            0.889              2.981             41.874
 Rotational               0.889              2.981             33.277
 Vibrational            204.833             57.361             65.438
 Vibration     1          0.593              1.984              6.047
 Vibration     2          0.594              1.982              5.359
 Vibration     3          0.595              1.979              4.934
 Vibration     4          0.597              1.972              4.353
 Vibration     5          0.602              1.955              3.622
 Vibration     6          0.603              1.952              3.541
 Vibration     7          0.608              1.936              3.164
 Vibration     8          0.616              1.910              2.758
 Vibration     9          0.619              1.901              2.656
 Vibration    10          0.619              1.899              2.629
 Vibration    11          0.623              1.887              2.510
 Vibration    12          0.624              1.884              2.477
 Vibration    13          0.627              1.874              2.388
 Vibration    14          0.630              1.865              2.310
 Vibration    15          0.642              1.826              2.048
 Vibration    16          0.658              1.778              1.799
 Vibration    17          0.660              1.770              1.761
 Vibration    18          0.663              1.761              1.724
 Vibration    19          0.696              1.665              1.391
 Vibration    20          0.725              1.580              1.177
 Vibration    21          0.807              1.365              0.801
 Vibration    22          0.828              1.315              0.736
 Vibration    23          0.849              1.264              0.675

 Optimization completed.
    -- Stationary point found.
 Normal termination of Gaussian 09 at Mon Jan  9 17:41:24 2023.
