 Gaussian 09, Revision D.01,
 Gaussian 09:  ES64L-G09RevD.01 24-Apr-2013

 ----------------------------------------------------------------------
 # opt freq=noraman b3lyp/6-311+g(d,p) pop=(npa,hirshfeld,chelpg,mbs) g
 eom=connectivity
 ----------------------------------------------------------------------

 -------------------
 Title Card Required
 -------------------
 Symbolic Z-matrix:
 Charge =  0 Multiplicity = 1

 SCF Done:  E(RB3LYP) =  -444.929315688     A.U. after   14 cycles
 SCF Done:  E(RB3LYP) =  -444.937354711     A.U. after   13 cycles
 SCF Done:  E(RB3LYP) =  -444.937815053     A.U. after   12 cycles
 SCF Done:  E(RB3LYP) =  -444.937828685     A.U. after   10 cycles
 SCF Done:  E(RB3LYP) =  -444.936345427     A.U. after   12 cycles
 SCF Done:  E(RB3LYP) =  -444.937830682     A.U. after    7 cycles
 SCF Done:  E(RB3LYP) =  -444.937831387     A.U. after    8 cycles
 Optimization completed.
    -- Stationary point found.
 Normal termination of Gaussian 09 at Tue Apr 23 11:20:26 2024.

 ----------------------------------------------------------------------
 #N Geom=AllCheck Guess=TCheck SCRF=Check GenChk RB3LYP/6-311+G(d,p) Fr
 eq
 ----------------------------------------------------------------------

 Structure from the checkpoint file:  "10.chk"
 -------------------
 Title Card Required
 -------------------
 Charge =  0 Multiplicity = 1

                         Standard orientation:
 ---------------------------------------------------------------------
 Center     Atomic      Atomic             Coordinates (Angstroms)
 Number     Number       Type             X           Y           Z
 ---------------------------------------------------------------------
      1          6           0       -0.160272    1.338394    0.000000
      2          6           0       -0.989828    0.211483    0.000004
      3          6           0       -0.420390   -1.070243    0.000006
      4          6           0        0.957796   -1.224739    0.000003
      5          6           0        1.751723   -0.082262    0.000000
      6          6           0        1.223856    1.200592   -0.000002
      7          1           0       -1.076586   -1.932431    0.000009
      8          1           0        1.425609   -2.201270    0.000003
      9          6           0       -2.458680    0.384139    0.000007
     10          8           0       -3.262867   -0.521285   -0.000011
     11          1           0       -2.799100    1.441452    0.000020
     12          1           0       -0.601618    2.329880   -0.000002
     13          1           0        1.887336    2.056014   -0.000004
     14          9           0        3.093563   -0.229728   -0.000004
 ---------------------------------------------------------------------

 SCF Done:  E(RB3LYP) =  -444.937831387     A.U. after    1 cycles

 The electronic state is 1-A.
 Alpha  occ. eigenvalues --  -24.71202 -19.13140 -10.29038 -10.27249 -10.21650
 Alpha  occ. eigenvalues --  -10.21102 -10.20912 -10.20824 -10.20716  -1.25221
 Alpha  occ. eigenvalues --   -1.06151  -0.89690  -0.79377  -0.78899  -0.67437
 Alpha  occ. eigenvalues --   -0.65608  -0.60040  -0.57283  -0.53291  -0.50727
 Alpha  occ. eigenvalues --   -0.49398  -0.47647  -0.46346  -0.45801  -0.42456
 Alpha  occ. eigenvalues --   -0.42372  -0.42081  -0.37943  -0.37624  -0.29364
 Alpha  occ. eigenvalues --   -0.27840  -0.27521
 Alpha virt. eigenvalues --   -0.08305  -0.04736  -0.00270   0.00796   0.01116
 Alpha virt. eigenvalues --    0.02140   0.02670   0.04177   0.05041   0.05409
 Alpha virt. eigenvalues --    0.06761   0.07156   0.07690   0.07898   0.09497

 Mulliken charges:
               1
     1  C   -0.905107
     2  C    0.959006
     3  C   -0.247606
     4  C    0.175510
     5  C   -0.309417
     6  C    0.235105
     7  H    0.163793
     8  H    0.146314
     9  C   -0.157963
    10  O   -0.268648
    11  H    0.100441
    12  H    0.139265
    13  H    0.144500
    14  F   -0.175194
 Sum of Mulliken charges =   0.00000

 Dipole moment (field-independent basis, Debye):
    X=              1.6129    Y=              1.6408    Z=              0.0000  Tot=              2.3008
 Quadrupole moment (field-independent basis, Debye-Ang):
   XX=            -66.2088   YY=            -44.0251   ZZ=            -53.0165
   XY=             -4.3225   XZ=             -0.0001   YZ=              0.0000

  Exact polarizability: 117.542   1.629  89.064   0.000   0.000  44.884
 Approx polarizability: 189.093   8.632 149.429   0.000   0.000  66.944

 ESP charges:
               1
     1  C   -0.128720
     2  C   -0.058033
     3  C   -0.011189
     4  C   -0.245034
     5  C    0.398798
     6  C   -0.186355
     7  H    0.108771
     8  H    0.154253
     9  C    0.466081
    10  O   -0.484004
    11  H   -0.018796
    12  H    0.114114
    13  H    0.142189
    14  F   -0.252073
 Sum of ESP charges =   0.00000

 Summary of Natural Population Analysis:

                                       Natural Population
                Natural  -----------------------------------------------
    Atom  No    Charge         Core      Valence    Rydberg      Total
 -----------------------------------------------------------------------
      C    1   -0.14536      1.99911     4.13017    0.01609     6.14536
      C    2   -0.18243      1.99897     4.16686    0.01659     6.18243
      C    3   -0.13193      1.99909     4.11554    0.01730     6.13193
      C    4   -0.26450      1.99905     4.24845    0.01701     6.26450
      C    5    0.43827      1.99850     3.53652    0.02671     5.56173
      C    6   -0.27136      1.99905     4.25469    0.01762     6.27136
      H    7    0.23307      0.00000     0.76483    0.00210     0.76693
      H    8    0.23019      0.00000     0.76818    0.00163     0.76981
      C    9    0.41762      1.99938     3.54335    0.03965     5.58238
      O   10   -0.53028      1.99977     6.51639    0.01412     8.53028
      H   11    0.10861      0.00000     0.88796    0.00343     0.89139
      H   12    0.21375      0.00000     0.78431    0.00194     0.78625
      H   13    0.22988      0.00000     0.76845    0.00168     0.77012
      F   14   -0.34553      1.99993     7.33743    0.00817     9.34553
 =======================================================================
   * Total *    0.00000     17.99283    45.82312    0.18404    64.00000

                      1                      2                      3
                      A                      A                      A
 Frequencies --     98.0341               189.4405               200.6229
 Red. masses --      9.2539                 3.1581                 7.7687
 Frc consts  --      0.0524                 0.0668                 0.1842
 IR Inten    --      6.0731                 4.1476                 8.8990

                      4                      5                      6
                      A                      A                      A
 Frequencies --    333.0646               386.8804               424.2133
 Red. masses --      3.8791                 9.8240                 5.8760
 Frc consts  --      0.2535                 0.8663                 0.6230
 IR Inten    --      5.6673                 2.2480                 6.7631

                      7                      8                      9
                      A                      A                      A
 Frequencies --    428.6671               513.0807               608.5272
 Red. masses --      2.9676                 2.6227                 7.2772
 Frc consts  --      0.3213                 0.4068                 1.5877
 IR Inten    --      0.5410                16.3230                33.7028

                     10                     11                     12
                      A                      A                      A
 Frequencies --    646.6745               710.0267               783.5351
 Red. masses --      7.2269                 3.7944                 5.0808
 Frc consts  --      1.7806                 1.1271                 1.8378
 IR Inten    --      2.5336                 0.3733                 3.6973

                     13                     14                     15
                      A                      A                      A
 Frequencies --    832.2218               852.1635               863.9004
 Red. masses --      1.2664                 1.5252                 5.7574
 Frc consts  --      0.5168                 0.6526                 2.5316
 IR Inten    --      7.4125                61.1167                49.1826

                     16                     17                     18
                      A                      A                      A
 Frequencies --    958.9096               993.1836              1026.4355
 Red. masses --      1.2980                 1.3499                 2.4981
 Frc consts  --      0.7032                 0.7845                 1.5507
 IR Inten    --      0.0663                 0.0005                 3.3985

                     19                     20                     21
                      A                      A                      A
 Frequencies --   1028.2839              1117.1644              1168.7761
 Red. masses --      1.7787                 1.2781                 1.1907
 Frc consts  --      1.1081                 0.9399                 0.9583
 IR Inten    --      1.5155                 6.6974                66.5516

                     22                     23                     24
                      A                      A                      A
 Frequencies --   1218.3860              1247.9290              1314.5584
 Red. masses --      2.8026                 4.8233                 1.3108
 Frc consts  --      2.4512                 4.4256                 1.3346
 IR Inten    --     33.2116               190.4112                13.1638

                     25                     26                     27
                      A                      A                      A
 Frequencies --   1344.0489              1414.0572              1450.0426
 Red. masses --      8.6805                 1.5800                 2.1984
 Frc consts  --      9.2390                 1.8615                 2.7234
 IR Inten    --     10.4935                11.6952                 7.5683

                     28                     29                     30
                      A                      A                      A
 Frequencies --   1533.8060              1627.1996              1638.3600
 Red. masses --      2.6438                 7.1570                 5.8630
 Frc consts  --      3.6645                11.1651                 9.2724
 IR Inten    --     39.7096                47.6573               153.1854

                     31                     32                     33
                      A                      A                      A
 Frequencies --   1767.6102              2889.4054              3168.5568
 Red. masses --     10.2058                 1.0832                 1.0894
 Frc consts  --     18.7875                 5.3282                 6.4442
 IR Inten    --    293.5547               113.1278                 4.6317

                     34                     35                     36
                      A                      A                      A
 Frequencies --   3191.4845              3204.2338              3205.3564
 Red. masses --      1.0887                 1.0939                 1.0955
 Frc consts  --      6.5335                 6.6174                 6.6313
 IR Inten    --      0.0278                 1.1065                 2.9306

 - Thermochemistry -
 -------------------
 Temperature   298.150 Kelvin.  Pressure   1.00000 Atm.
 Atom     1 has atomic number  6 and mass  12.00000

 Molecular mass:   124.03244 amu.
 Principal axes and moments of inertia in atomic units:
                           1         2         3
     Eigenvalues --   352.496631855.403642207.90027
           X            0.99999  -0.00461   0.00000
           Y            0.00461   0.99999   0.00000
           Z            0.00000   0.00000   1.00000
 This molecule is an asymmetric top.
 Rotational symmetry number  1.
 Rotational temperatures (Kelvin)      0.24572     0.04668     0.03923
 Rotational constants (GHZ):           5.11988     0.97269     0.81740
 Zero-point vibrational energy     265444.4 (Joules/Mol)
                                   63.44274 (Kcal/Mol)
 Warning -- explicit consideration of   9 degrees of freedom as
           vibrations may cause significant error
 Vibrational temperatures:    141.05   272.56   288.65   479.21   556.63
          (Kelvin)            610.35   616.76   738.21   875.53   930.42
                             1021.57  1127.33  1197.38  1226.07  1242.96
                             1379.66  1428.97  1476.81  1479.47  1607.35
                             1681.61  1752.98  1795.49  1891.35  1933.78
                             2034.51  2086.29  2206.80  2341.17  2357.23
                             2543.19  4157.20  4558.84  4591.83  4610.17
                             4611.79

 Zero-point correction=                           0.101102 (Hartree/Particle)
 Thermal correction to Energy=                    0.108240
 Thermal correction to Enthalpy=                  0.109184
 Thermal correction to Gibbs Free Energy=         0.069228
 Sum of electronic and zero-point Energies=           -444.836729
 Sum of electronic and thermal Energies=              -444.829592
 Sum of electronic and thermal Enthalpies=            -444.828647
 Sum of electronic and thermal Free Energies=         -444.868604

                     E (Thermal)             CV                S
                      KCal/Mol        Cal/Mol-Kelvin    Cal/Mol-Kelvin
 Total                   67.922             26.930             84.095
 Electronic               0.000              0.000              0.000
 Translational            0.889              2.981             40.360
 Rotational               0.889              2.981             28.759
 Vibrational             66.144             20.968             14.976
 Vibration     1          0.603              1.951              3.493
 Vibration     2          0.633              1.854              2.233
 Vibration     3          0.638              1.839              2.127
 Vibration     4          0.715              1.609              1.245
 Vibration     5          0.755              1.498              1.012
 Vibration     6          0.786              1.418              0.878
 Vibration     7          0.790              1.408              0.863
 Vibration     8          0.868              1.221              0.626
 Vibration     9          0.967              1.014              0.435

 Optimization completed.
    -- Stationary point found.
 Normal termination of Gaussian 09 at Tue Apr 23 11:21:21 2024.
