 Gaussian 09, Revision D.01,
 Gaussian 09:  ES64L-G09RevD.01 24-Apr-2013

 ----------------------------------------------------------------------
 # opt freq=noraman b3lyp/6-311+g(d,p) pop=(npa,hirshfeld,chelpg,mbs) g
 eom=connectivity
 ----------------------------------------------------------------------

 -------------------
 Title Card Required
 -------------------
 Symbolic Z-matrix:
 Charge =  0 Multiplicity = 1

 SCF Done:  E(RB3LYP) =  -460.209644593     A.U. after   15 cycles
 SCF Done:  E(RB3LYP) =  -460.220656737     A.U. after   13 cycles
 SCF Done:  E(RB3LYP) =  -460.221444415     A.U. after   12 cycles
 SCF Done:  E(RB3LYP) =  -460.211382651     A.U. after   14 cycles
 SCF Done:  E(RB3LYP) =  -460.221473472     A.U. after    9 cycles
 SCF Done:  E(RB3LYP) =  -460.221516362     A.U. after   11 cycles
 SCF Done:  E(RB3LYP) =  -460.221528858     A.U. after   11 cycles
 SCF Done:  E(RB3LYP) =  -460.221642156     A.U. after   12 cycles
 SCF Done:  E(RB3LYP) =  -460.211802022     A.U. after   16 cycles
 SCF Done:  E(RB3LYP) =  -460.221731768     A.U. after   14 cycles
 SCF Done:  E(RB3LYP) =  -460.226471524     A.U. after   12 cycles
 SCF Done:  E(RB3LYP) =  -460.225892730     A.U. after   14 cycles
 SCF Done:  E(RB3LYP) =  -460.227479665     A.U. after   11 cycles
 SCF Done:  E(RB3LYP) =  -460.227766907     A.U. after   12 cycles
 SCF Done:  E(RB3LYP) =  -460.228012386     A.U. after   12 cycles
 SCF Done:  E(RB3LYP) =  -460.228079383     A.U. after   11 cycles
 SCF Done:  E(RB3LYP) =  -460.228096193     A.U. after   11 cycles
 SCF Done:  E(RB3LYP) =  -460.228099619     A.U. after   10 cycles
 SCF Done:  E(RB3LYP) =  -460.228100018     A.U. after    9 cycles
 Optimization completed.
    -- Stationary point found.
 Normal termination of Gaussian 09 at Tue Apr 23 11:30:24 2024.

 ----------------------------------------------------------------------
 #N Geom=AllCheck Guess=TCheck SCRF=Check GenChk RB3LYP/6-311+G(d,p) Fr
 eq
 ----------------------------------------------------------------------

 Structure from the checkpoint file:  "14.chk"
 -------------------
 Title Card Required
 -------------------
 Charge =  0 Multiplicity = 1

                         Standard orientation:
 ---------------------------------------------------------------------
 Center     Atomic      Atomic             Coordinates (Angstroms)
 Number     Number       Type             X           Y           Z
 ---------------------------------------------------------------------
      1          6           0       -0.541240    1.278108   -0.000337
      2          6           0       -1.458642    0.225645   -0.000085
      3          6           0       -0.978498   -1.096511   -0.000066
      4          6           0        0.377782   -1.348607   -0.000252
      5          6           0        1.293914   -0.280674   -0.000306
      6          6           0        0.830901    1.040100   -0.000393
      7          1           0        0.766606   -2.359679   -0.000252
      8          6           0       -2.903150    0.511045    0.000145
      9          8           0       -3.782164   -0.325247    0.000523
     10          1           0       -3.158066    1.592867   -0.000292
     11          1           0       -0.903337    2.301843   -0.000416
     12          1           0        1.519322    1.873892   -0.000542
     13          1           0       -1.694299   -1.910175    0.000103
     14          8           0        2.602899   -0.634747   -0.000392
     15          6           0        3.596588    0.386106    0.000813
     16          1           0        4.552647   -0.133765    0.001517
     17          1           0        3.523432    1.011999   -0.894242
     18          1           0        3.521878    1.011693    0.895951
 ---------------------------------------------------------------------

 SCF Done:  E(RB3LYP) =  -460.228100018     A.U. after    1 cycles

 The electronic state is 1-A.
 Alpha  occ. eigenvalues --  -19.17829 -19.11684 -10.26171 -10.25859 -10.24387
 Alpha  occ. eigenvalues --  -10.20304 -10.19508 -10.19487 -10.19012 -10.18980
 Alpha  occ. eigenvalues --   -1.09428  -1.04645  -0.87889  -0.78953  -0.77265
 Alpha  occ. eigenvalues --   -0.72966  -0.64472  -0.63691  -0.58402  -0.55685
 Alpha  occ. eigenvalues --   -0.51566  -0.49439  -0.49296  -0.46813  -0.45282
 Alpha  occ. eigenvalues --   -0.44594  -0.42791  -0.41597  -0.40780  -0.39073
 Alpha  occ. eigenvalues --   -0.38084  -0.35072  -0.34053  -0.27916  -0.26182
 Alpha  occ. eigenvalues --   -0.24828
 Alpha virt. eigenvalues --   -0.06762  -0.03322  -0.00884   0.00971   0.01516
 Alpha virt. eigenvalues --    0.02014   0.02752   0.03354   0.03944   0.04167
 Alpha virt. eigenvalues --    0.06147   0.06193   0.06486   0.07731   0.08014

 Mulliken charges:
               1
     1  C   -1.229024
     2  C    0.993165
     3  C   -0.097451
     4  C   -0.097985
     5  C   -0.504937
     6  C    0.654962
     7  H    0.134529
     8  C   -0.147490
     9  O   -0.278751
    10  H    0.094011
    11  H    0.130902
    12  H    0.126241
    13  H    0.156758
    14  O   -0.168587
    15  C   -0.231595
    16  H    0.164643
    17  H    0.150309
    18  H    0.150301
 Sum of Mulliken charges =   0.00000

 Dipole moment (field-independent basis, Debye):
    X=              4.7805    Y=              2.3696    Z=              0.0005  Tot=              5.3355
 Quadrupole moment (field-independent basis, Debye-Ang):
   XX=            -66.1203   YY=            -53.6767   ZZ=            -61.0964
   XY=             -0.5577   XZ=              0.0089   YZ=             -0.0005

  Exact polarizability: 158.222   1.431 100.375  -0.004  -0.005  57.872
 Approx polarizability: 236.581   4.390 168.061  -0.016  -0.008  86.726

 ESP charges:
               1
     1  C   -0.141346
     2  C   -0.070918
     3  C    0.036309
     4  C   -0.318745
     5  C    0.467694
     6  C   -0.223870
     7  H    0.146315
     8  C    0.443524
     9  O   -0.493571
    10  H   -0.014893
    11  H    0.109430
    12  H    0.130085
    13  H    0.096265
    14  O   -0.410247
    15  C    0.168218
    16  H    0.058155
    17  H    0.008809
    18  H    0.008786
 Sum of ESP charges =   0.00000

 Summary of Natural Population Analysis:

                                       Natural Population
                Natural  -----------------------------------------------
    Atom  No    Charge         Core      Valence    Rydberg      Total
 -----------------------------------------------------------------------
      C    1   -0.13870      1.99911     4.12245    0.01714     6.13870
      C    2   -0.19759      1.99896     4.18161    0.01701     6.19759
      C    3   -0.13493      1.99909     4.11840    0.01745     6.13493
      C    4   -0.23837      1.99907     4.22195    0.01735     6.23837
      C    5    0.35342      1.99882     3.62448    0.02329     5.64658
      C    6   -0.30027      1.99906     4.28546    0.01574     6.30027
      H    7    0.22391      0.00000     0.77427    0.00181     0.77609
      C    8    0.41378      1.99936     3.54705    0.03981     5.58622
      O    9   -0.54308      1.99977     6.52898    0.01433     8.54308
      H   10    0.10439      0.00000     0.89209    0.00352     0.89561
      H   11    0.20896      0.00000     0.78902    0.00202     0.79104
      H   12    0.21571      0.00000     0.78240    0.00189     0.78429
      H   13    0.22968      0.00000     0.76828    0.00205     0.77032
      O   14   -0.53071      1.99971     6.51311    0.01789     8.53071
      C   15   -0.20998      1.99926     4.19527    0.01546     6.20998
      H   16    0.19621      0.00000     0.80275    0.00104     0.80379
      H   17    0.17377      0.00000     0.82407    0.00216     0.82623
      H   18    0.17379      0.00000     0.82405    0.00216     0.82621
 =======================================================================
   * Total *    0.00000     19.99221    51.79568    0.21211    72.00000

                      1                      2                      3
                      A                      A                      A
 Frequencies --     68.3141               123.7177               177.6791
 Red. masses --      4.3206                 4.6821                 5.6442
 Frc consts  --      0.0119                 0.0422                 0.1050
 IR Inten    --      0.0061                 9.3523                 2.6518

                      4                      5                      6
                      A                      A                      A
 Frequencies --    182.6239               237.6373               259.0742
 Red. masses --      2.1142                 1.2547                 3.7326
 Frc consts  --      0.0415                 0.0417                 0.1476
 IR Inten    --      2.0979                 0.6571                 8.1581

                      7                      8                      9
                      A                      A                      A
 Frequencies --    331.2138               396.2168               431.2710
 Red. masses --      3.4337                 5.9015                 2.9886
 Frc consts  --      0.2219                 0.5459                 0.3275
 IR Inten    --      7.0367                 7.6677                 0.6644

                     10                     11                     12
                      A                      A                      A
 Frequencies --    487.2568               520.0507               620.0284
 Red. masses --      4.6621                 2.5627                 5.8834
 Frc consts  --      0.6521                 0.4084                 1.3326
 IR Inten    --      0.5102                14.4151                27.8137

                     13                     14                     15
                      A                      A                      A
 Frequencies --    652.9223               719.2294               767.8051
 Red. masses --      6.7151                 3.5488                 4.8178
 Frc consts  --      1.6867                 1.0816                 1.6734
 IR Inten    --     11.6365                 0.4114                 6.6147

                     16                     17                     18
                      A                      A                      A
 Frequencies --    818.8446               852.9896               855.8476
 Red. masses --      1.3450                 1.5184                 5.3056
 Frc consts  --      0.5314                 0.6509                 2.2897
 IR Inten    --     20.7546                44.5072                37.6469

                     19                     20                     21
                      A                      A                      A
 Frequencies --    950.1742               996.8229              1020.9826
 Red. masses --      1.3025                 1.3418                 2.6021
 Frc consts  --      0.6928                 0.7856                 1.5981
 IR Inten    --      0.1687                 0.0227                 0.0621

                     22                     23                     24
                      A                      A                      A
 Frequencies --   1025.6961              1052.9912              1130.8856
 Red. masses --      1.7503                 6.9814                 1.2891
 Frc consts  --      1.0849                 4.5608                 0.9713
 IR Inten    --      1.2271                59.8185                12.4295

                     25                     26                     27
                      A                      A                      A
 Frequencies --   1167.3215              1182.0652              1201.7269
 Red. masses --      1.2738                 1.2266                 1.4034
 Frc consts  --      1.0226                 1.0098                 1.1941
 IR Inten    --      0.6966               152.4881                 6.2801

                     28                     29                     30
                      A                      A                      A
 Frequencies --   1234.8460              1282.4715              1324.6098
 Red. masses --      2.6352                 4.5569                 1.3361
 Frc consts  --      2.3675                 4.4159                 1.3812
 IR Inten    --     63.8971               346.1165                19.2067

                     31                     32                     33
                      A                      A                      A
 Frequencies --   1353.6886              1418.0127              1455.8978
 Red. masses --      6.1815                 1.4281                 2.6702
 Frc consts  --      6.6740                 1.6919                 3.3347
 IR Inten    --     14.9274                16.4262                35.3566

                     34                     35                     36
                      A                      A                      A
 Frequencies --   1475.0165              1494.4309              1503.1499
 Red. masses --      1.1915                 1.0454                 1.0584
 Frc consts  --      1.5273                 1.3755                 1.4090
 IR Inten    --      5.5849                10.3797                29.1360

                     37                     38                     39
                      A                      A                      A
 Frequencies --   1538.6022              1606.4297              1643.3825
 Red. masses --      2.5414                 6.4246                 5.6963
 Frc consts  --      3.5447                 9.7683                 9.0640
 IR Inten    --     47.7027                94.6375               266.5075

                     40                     41                     42
                      A                      A                      A
 Frequencies --   1757.3347              2878.7022              3012.8042
 Red. masses --     10.0970                 1.0824                 1.0341
 Frc consts  --     18.3718                 5.2847                 5.5306
 IR Inten    --    337.1178               126.5806                51.6999

                     43                     44                     45
                      A                      A                      A
 Frequencies --   3075.3264              3141.6004              3159.9781
 Red. masses --      1.1066                 1.0999                 1.0893
 Frc consts  --      6.1665                 6.3960                 6.4087
 IR Inten    --     32.0145                17.8937                 7.5233

                     46                     47                     48
                      A                      A                      A
 Frequencies --   3186.3163              3199.9000              3207.6074
 Red. masses --      1.0878                 1.0953                 1.0917
 Frc consts  --      6.5072                 6.6077                 6.6180
 IR Inten    --      0.3603                 3.6325                 7.1211

 - Thermochemistry -
 -------------------
 Temperature   298.150 Kelvin.  Pressure   1.00000 Atm.
 Atom     1 has atomic number  6 and mass  12.00000

 Molecular mass:   136.05243 amu.
 Principal axes and moments of inertia in atomic units:
                           1         2         3
     Eigenvalues --   384.846132599.406342972.71822
           X            0.99998   0.00621   0.00002
           Y           -0.00621   0.99998  -0.00001
           Z           -0.00002   0.00001   1.00000
 This molecule is an asymmetric top.
 Rotational symmetry number  1.
 Rotational temperatures (Kelvin)      0.22506     0.03332     0.02914
 Rotational constants (GHZ):           4.68951     0.69429     0.60710
 Zero-point vibrational energy     371927.9 (Joules/Mol)
                                   88.89291 (Kcal/Mol)
 Warning -- explicit consideration of  12 degrees of freedom as
           vibrations may cause significant error
 Vibrational temperatures:     98.29   178.00   255.64   262.75   341.91
          (Kelvin)            372.75   476.54   570.07   620.50   701.05
                              748.24   892.08   939.41  1034.81  1104.70
                             1178.13  1227.26  1231.37  1367.09  1434.20
                             1468.96  1475.75  1515.02  1627.09  1679.51
                             1700.73  1729.01  1776.67  1845.19  1905.82
                             1947.65  2040.20  2094.71  2122.22  2150.15
                             2162.69  2213.70  2311.29  2364.46  2528.41
                             4141.81  4334.75  4424.70  4520.06  4546.50
                             4584.39  4603.94  4615.03

 Zero-point correction=                           0.141660 (Hartree/Particle)
 Thermal correction to Energy=                    0.150579
 Thermal correction to Enthalpy=                  0.151524
 Thermal correction to Gibbs Free Energy=         0.107544
 Sum of electronic and zero-point Energies=           -460.086440
 Sum of electronic and thermal Energies=              -460.077521
 Sum of electronic and thermal Enthalpies=            -460.076576
 Sum of electronic and thermal Free Energies=         -460.120556

                     E (Thermal)             CV                S
                      KCal/Mol        Cal/Mol-Kelvin    Cal/Mol-Kelvin
 Total                   94.490             33.219             92.563
 Electronic               0.000              0.000              0.000
 Translational            0.889              2.981             40.636
 Rotational               0.889              2.981             29.476
 Vibrational             92.713             27.258             22.451
 Vibration     1          0.598              1.969              4.201
 Vibration     2          0.610              1.929              3.041
 Vibration     3          0.628              1.870              2.353
 Vibration     4          0.630              1.863              2.301
 Vibration     5          0.656              1.783              1.821
 Vibration     6          0.668              1.747              1.668
 Vibration     7          0.714              1.613              1.254
 Vibration     8          0.763              1.478              0.977
 Vibration     9          0.792              1.402              0.855
 Vibration    10          0.843              1.278              0.691
 Vibration    11          0.875              1.206              0.610
 Vibration    12          0.980              0.990              0.416

 Optimization completed.
    -- Stationary point found.
 Normal termination of Gaussian 09 at Tue Apr 23 11:32:11 2024.
