 Gaussian 09, Revision D.01,
 Gaussian 09:  ES64L-G09RevD.01 24-Apr-2013

 ----------------------------------------------------------------------
 # opt freq=noraman b3lyp/6-311+g(d,p) pop=(npa,hirshfeld,chelpg,mbs) g
 eom=connectivity
 ----------------------------------------------------------------------

 -------------------
 Title Card Required
 -------------------
 Symbolic Z-matrix:
 Charge =  0 Multiplicity = 1

 SCF Done:  E(RB3LYP) =  -1129.47054301     A.U. after   15 cycles
 SCF Done:  E(RB3LYP) =  -1129.47079645     A.U. after   12 cycles
 SCF Done:  E(RB3LYP) =  -1129.47080861     A.U. after   10 cycles
 SCF Done:  E(RB3LYP) =  -1129.47080945     A.U. after    9 cycles
 SCF Done:  E(RB3LYP) =  -1129.47080937     A.U. after    9 cycles
 SCF Done:  E(RB3LYP) =  -1129.47080952     A.U. after    8 cycles
 Optimization completed.
    -- Stationary point found.
 Normal termination of Gaussian 09 at Tue Dec 20 16:53:40 2022.

 ----------------------------------------------------------------------
 #N Geom=AllCheck Guess=TCheck SCRF=Check GenChk RB3LYP/6-311+G(d,p) Fr
 eq
 ----------------------------------------------------------------------

 Structure from the checkpoint file:  "Cl_methylthioethercharges.chk"
 -------------------
 Title Card Required
 -------------------
 Charge =  0 Multiplicity = 1

                         Standard orientation:
 ---------------------------------------------------------------------
 Center     Atomic      Atomic             Coordinates (Angstroms)
 Number     Number       Type             X           Y           Z
 ---------------------------------------------------------------------
      1          6           0       -0.960142   -1.155963    0.000019
      2          6           0        0.426071   -0.999854    0.000012
      3          6           0        0.997691    0.275925   -0.000006
      4          6           0        0.152308    1.395513   -0.000014
      5          6           0       -1.228191    1.245148   -0.000006
      6          6           0       -1.778311   -0.034695    0.000010
      7          1           0       -1.395373   -2.147318    0.000033
      8          1           0        1.044878   -1.887135    0.000021
      9          1           0        0.576811    2.393384   -0.000028
     10          1           0       -1.873102    2.114686   -0.000013
     11         16           0        2.749286    0.599370   -0.000013
     12          6           0        3.491601   -1.062641   -0.000025
     13          1           0        3.221828   -1.622042   -0.896623
     14          1           0        4.568997   -0.895562   -0.000002
     15          1           0        3.221794   -1.622071    0.896545
     16         17           0       -3.527092   -0.229674    0.000021
 ---------------------------------------------------------------------

 SCF Done:  E(RB3LYP) =  -1129.47080952     A.U. after    1 cycles

 The electronic state is 1-A.
 Alpha  occ. eigenvalues -- -101.55535 -88.86371 -10.24123 -10.22396 -10.21240
 Alpha  occ. eigenvalues --  -10.19675 -10.19627 -10.19567 -10.19482  -9.46989
 Alpha  occ. eigenvalues --   -7.94972  -7.23446  -7.22470  -7.22445  -5.91384
 Alpha  occ. eigenvalues --   -5.90972  -5.90347  -0.90184  -0.85706  -0.80504
 Alpha  occ. eigenvalues --   -0.77218  -0.74110  -0.66396  -0.63353  -0.59605
 Alpha  occ. eigenvalues --   -0.52286  -0.49068  -0.47395  -0.45855  -0.44962
 Alpha  occ. eigenvalues --   -0.44421  -0.41559  -0.40761  -0.38604  -0.37241
 Alpha  occ. eigenvalues --   -0.35151  -0.33587  -0.31913  -0.28761  -0.27700
 Alpha  occ. eigenvalues --   -0.22168
 Alpha virt. eigenvalues --   -0.03383  -0.02826  -0.01151  -0.00050   0.01324
 Alpha virt. eigenvalues --    0.01518   0.02938   0.03632   0.04024   0.04309
 Alpha virt. eigenvalues --    0.04651   0.06267   0.06692   0.07216   0.07265

 Mulliken charges:
               1
     1  C   -1.099611
     2  C    0.442162
     3  C    0.537400
     4  C   -0.445657
     5  C   -0.911181
     6  C    1.036483
     7  H    0.148484
     8  H    0.133256
     9  H    0.139004
    10  H    0.150448
    11  S   -0.598704
    12  C   -0.401162
    13  H    0.178530
    14  H    0.181818
    15  H    0.178525
    16  Cl   0.330207
 Sum of Mulliken charges =   0.00000

 Dipole moment (field-independent basis, Debye):
    X=              2.0771    Y=             -1.1783    Z=              0.0000  Tot=              2.3881
 Quadrupole moment (field-independent basis, Debye-Ang):
   XX=            -68.2803   YY=            -61.6828   ZZ=            -71.9744
   XY=             -6.0443   XZ=              0.0000   YZ=             -0.0001

  Exact polarizability: 173.784  -0.852 108.572   0.077  -0.015  67.592
 Approx polarizability: 244.122   2.639 183.954  -0.001  -0.001 103.092

 ESP charges:
               1
     1  C   -0.128876
     2  C   -0.119129
     3  C    0.163065
     4  C   -0.180042
     5  C   -0.074504
     6  C    0.119916
     7  H    0.107543
     8  H    0.126801
     9  H    0.146998
    10  H    0.096373
    11  S   -0.246377
    12  C   -0.023856
    13  H    0.029126
    14  H    0.112457
    15  H    0.029126
    16  Cl  -0.158620
 Sum of ESP charges =   0.00000

 Summary of Natural Population Analysis:

                                       Natural Population
                Natural  -----------------------------------------------
    Atom  No    Charge         Core      Valence    Rydberg      Total
 -----------------------------------------------------------------------
      C    1   -0.20946      1.99896     4.19153    0.01897     6.20946
      C    2   -0.22662      1.99901     4.20992    0.01769     6.22662
      C    3   -0.17746      1.99884     4.15800    0.02061     6.17746
      C    4   -0.20416      1.99904     4.18674    0.01839     6.20416
      C    5   -0.21149      1.99897     4.19358    0.01894     6.21149
      C    6   -0.05266      1.99856     4.03072    0.02339     6.05266
      H    7    0.22343      0.00000     0.77485    0.00172     0.77657
      H    8    0.21197      0.00000     0.78593    0.00211     0.78803
      H    9    0.21696      0.00000     0.78117    0.00187     0.78304
      H   10    0.22477      0.00000     0.77353    0.00170     0.77523
      S   11    0.27174      9.99912     5.68608    0.04307    15.72826
      C   12   -0.71587      1.99928     4.70579    0.01081     6.71587
      H   13    0.21148      0.00000     0.78624    0.00227     0.78852
      H   14    0.22899      0.00000     0.76975    0.00126     0.77101
      H   15    0.21148      0.00000     0.78624    0.00227     0.78852
     Cl   16   -0.00310      9.99962     6.98329    0.02019    17.00310
 =======================================================================
   * Total *    0.00000     33.99138    47.80335    0.20527    82.00000

                      1                      2                      3
                      A                      A                      A
 Frequencies --     37.3960                95.2744               164.0151
 Red. masses --      3.3838                 8.7475                 4.3544
 Frc consts  --      0.0028                 0.0468                 0.0690
 IR Inten    --      1.6267                 0.5020                 0.8064

                      4                      5                      6
                      A                      A                      A
 Frequencies --    218.2208               265.5599               292.5707
 Red. masses --      1.1105                 5.5809                 5.2076
 Frc consts  --      0.0312                 0.2319                 0.2626
 IR Inten    --      0.0543                 0.4177                 0.0027

                      7                      8                      9
                      A                      A                      A
 Frequencies --    323.1236               386.0721               413.2460
 Red. masses --     10.2404                 4.6581                 2.9950
 Frc consts  --      0.6299                 0.4091                 0.3013
 IR Inten    --      0.2515                 0.9834                 0.0019

                     10                     11                     12
                      A                      A                      A
 Frequencies --    490.5994               529.2552               642.6083
 Red. masses --      2.8930                 8.7888                 7.1238
 Frc consts  --      0.4103                 1.4505                 1.7332
 IR Inten    --     17.6118                27.4527                 0.0371

                     13                     14                     15
                      A                      A                      A
 Frequencies --    705.5033               713.8012               752.4257
 Red. masses --      4.2093                 6.1417                 7.3176
 Frc consts  --      1.2344                 1.8437                 2.4409
 IR Inten    --      0.1301                 1.4272                 3.1644

                     16                     17                     18
                      A                      A                      A
 Frequencies --    814.9391               823.9389               946.9106
 Red. masses --      1.4399                 1.2789                 1.2984
 Frc consts  --      0.5634                 0.5116                 0.6859
 IR Inten    --     46.3117                 6.1415                 1.2384

                     19                     20                     21
                      A                      A                      A
 Frequencies --    969.1015               973.9044               988.0204
 Red. masses --      1.3238                 1.2021                 1.3270
 Frc consts  --      0.7325                 0.6718                 0.7632
 IR Inten    --      0.6637                 3.2973                 9.6135

                     22                     23                     24
                      A                      A                      A
 Frequencies --   1024.9853              1093.4827              1108.4132
 Red. masses --      3.8283                 7.7123                 2.2763
 Frc consts  --      2.3697                 5.4332                 1.6477
 IR Inten    --     30.9560                 1.4458               102.7838

                     25                     26                     27
                      A                      A                      A
 Frequencies --   1136.5536              1208.0140              1303.8970
 Red. masses --      1.3591                 1.1569                 9.9648
 Frc consts  --      1.0343                 0.9947                 9.9817
 IR Inten    --      4.7435                 2.9198                 2.3505

                     28                     29                     30
                      A                      A                      A
 Frequencies --   1324.5436              1361.7750              1420.9866
 Red. masses --      1.2779                 1.1761                 2.6543
 Frc consts  --      1.3209                 1.2850                 3.1578
 IR Inten    --      0.2665                 1.2707                 5.4332

                     31                     32                     33
                      A                      A                      A
 Frequencies --   1467.2923              1485.8386              1507.6377
 Red. masses --      1.0511                 1.0661                 2.0339
 Frc consts  --      1.3333                 1.3868                 2.7238
 IR Inten    --     10.4958                36.5419                90.1000

                     34                     35                     36
                      A                      A                      A
 Frequencies --   1597.9975              1618.2361              3039.9851
 Red. masses --      6.6575                 5.6106                 1.0298
 Frc consts  --     10.0164                 8.6565                 5.6071
 IR Inten    --      1.0281                 2.7748                21.9642

                     37                     38                     39
                      A                      A                      A
 Frequencies --   3121.8250              3133.7474              3172.9176
 Red. masses --      1.1083                 1.1028                 1.0891
 Frc consts  --      6.3638                 6.3806                 6.4600
 IR Inten    --      8.1715                 4.0370                 3.0629

                     40                     41                     42
                      A                      A                      A
 Frequencies --   3190.6606              3200.4343              3205.6798
 Red. masses --      1.0879                 1.0938                 1.0942
 Frc consts  --      6.5255                 6.6011                 6.6247
 IR Inten    --      2.2873                 3.0432                 3.1232

 - Thermochemistry -
 -------------------
 Temperature   298.150 Kelvin.  Pressure   1.00000 Atm.
 Atom     1 has atomic number  6 and mass  12.00000

 Molecular mass:   157.99570 amu.
 Principal axes and moments of inertia in atomic units:
                           1         2         3
     Eigenvalues --   441.534153407.963753837.92547
           X            0.99979  -0.02045   0.00001
           Y            0.02045   0.99979   0.00001
           Z           -0.00001  -0.00001   1.00000
 This molecule is an asymmetric top.
 Rotational symmetry number  1.
 Warning -- assumption of classical behavior for rotation
           may cause significant error
 Rotational temperatures (Kelvin)      0.19617     0.02542     0.02257
 Rotational constants (GHZ):           4.08743     0.52957     0.47024
 Zero-point vibrational energy     312652.3 (Joules/Mol)
                                   74.72570 (Kcal/Mol)
 Warning -- explicit consideration of  11 degrees of freedom as
           vibrations may cause significant error
 Vibrational temperatures:     53.80   137.08   235.98   313.97   382.08
          (Kelvin)            420.94   464.90   555.47   594.57   705.86
                              761.48   924.57  1015.06  1027.00  1082.57
                             1172.51  1185.46  1362.39  1394.32  1401.23
                             1421.54  1474.72  1573.28  1594.76  1635.25
                             1738.06  1876.01  1905.72  1959.29  2044.48
                             2111.10  2137.79  2169.15  2299.16  2328.28
                             4373.86  4491.60  4508.76  4565.11  4590.64
                             4604.71  4612.25

 Zero-point correction=                           0.119083 (Hartree/Particle)
 Thermal correction to Energy=                    0.127954
 Thermal correction to Enthalpy=                  0.128898
 Thermal correction to Gibbs Free Energy=         0.083909
 Sum of electronic and zero-point Energies=          -1129.351727
 Sum of electronic and thermal Energies=             -1129.342855
 Sum of electronic and thermal Enthalpies=           -1129.341911
 Sum of electronic and thermal Free Energies=        -1129.386901

                     E (Thermal)             CV                S
                      KCal/Mol        Cal/Mol-Kelvin    Cal/Mol-Kelvin
 Total                   80.292             32.430             94.688
 Electronic               0.000              0.000              0.000
 Translational            0.889              2.981             41.081
 Rotational               0.889              2.981             30.136
 Vibrational             78.515             26.468             23.471
 Vibration     1          0.594              1.982              5.392
 Vibration     2          0.603              1.953              3.549
 Vibration     3          0.623              1.887              2.503
 Vibration     4          0.646              1.813              1.974
 Vibration     5          0.671              1.736              1.625
 Vibration     6          0.688              1.688              1.459
 Vibration     7          0.708              1.629              1.294
 Vibration     8          0.755              1.500              1.015
 Vibration     9          0.777              1.441              0.915
 Vibration    10          0.846              1.271              0.682
 Vibration    11          0.884              1.185              0.589

 Optimization completed.
    -- Stationary point found.
 Normal termination of Gaussian 09 at Tue Dec 20 16:55:16 2022.
