 Gaussian 09, Revision D.01,
 Gaussian 09:  ES64L-G09RevD.01 24-Apr-2013

 ----------------------------------------------------------------------
 # opt freq=noraman b3lyp/6-311+g(d,p) pop=(npa,hirshfeld,chelpg,mbs) g
 eom=connectivity
 ----------------------------------------------------------------------

 -------------------
 Title Card Required
 -------------------
 Symbolic Z-matrix:
 Charge =  0 Multiplicity = 1

 SCF Done:  E(RB3LYP) =  -805.266798819     A.U. after   15 cycles
 SCF Done:  E(RB3LYP) =  -805.279502914     A.U. after   16 cycles
 SCF Done:  E(RB3LYP) =  -805.282961806     A.U. after   15 cycles
 SCF Done:  E(RB3LYP) =  -805.283134704     A.U. after   12 cycles
 SCF Done:  E(RB3LYP) =  -805.283137395     A.U. after   13 cycles
 SCF Done:  E(RB3LYP) =  -805.282847506     A.U. after   12 cycles
 SCF Done:  E(RB3LYP) =  -805.283137841     A.U. after    6 cycles
 Optimization completed.
    -- Stationary point found.
 Normal termination of Gaussian 09 at Tue Apr 23 11:21:02 2024.

 ----------------------------------------------------------------------
 #N Geom=AllCheck Guess=TCheck SCRF=Check GenChk RB3LYP/6-311+G(d,p) Fr
 eq
 ----------------------------------------------------------------------

 Structure from the checkpoint file:  "12.chk"
 -------------------
 Title Card Required
 -------------------
 Charge =  0 Multiplicity = 1

                         Standard orientation:
 ---------------------------------------------------------------------
 Center     Atomic      Atomic             Coordinates (Angstroms)
 Number     Number       Type             X           Y           Z
 ---------------------------------------------------------------------
      1          6           0       -1.284583    1.404295   -0.000011
      2          6           0       -0.019943    0.794828   -0.000013
      3          6           0        0.034357   -0.611479   -0.000003
      4          6           0       -1.137622   -1.363656    0.000009
      5          6           0       -2.377557   -0.729566    0.000011
      6          6           0       -2.457051    0.661765    0.000002
      7          1           0       -1.071225   -2.444108    0.000016
      8          6           0        1.146766    1.716399   -0.000028
      9          8           0        2.316304    1.418907    0.000030
     10          1           0        0.838938    2.784580    0.000049
     11          1           0       -1.329458    2.488976   -0.000019
     12          1           0       -3.419643    1.158369    0.000004
     13          1           0       -3.280351   -1.329570    0.000021
     14         17           0        1.547359   -1.485001   -0.000007
 ---------------------------------------------------------------------

 SCF Done:  E(RB3LYP) =  -805.283137841     A.U. after    2 cycles

 The electronic state is 1-A.
 Alpha  occ. eigenvalues -- -101.56100 -19.13085 -10.27355 -10.26421 -10.21619
 Alpha  occ. eigenvalues --  -10.21285 -10.21193 -10.20783 -10.20473  -9.47567
 Alpha  occ. eigenvalues --   -7.24047  -7.23073  -7.22964  -1.06255  -0.91412
 Alpha  occ. eigenvalues --   -0.85882  -0.79832  -0.76039  -0.67194  -0.64103
 Alpha  occ. eigenvalues --   -0.59176  -0.53837  -0.50711  -0.48986  -0.46539
 Alpha  occ. eigenvalues --   -0.45597  -0.44654  -0.43521  -0.39734  -0.39412
 Alpha  occ. eigenvalues --   -0.38635  -0.35247  -0.32677  -0.29103  -0.27007
 Alpha  occ. eigenvalues --   -0.26755
 Alpha virt. eigenvalues --   -0.08622  -0.04531  -0.00880   0.00704   0.00711
 Alpha virt. eigenvalues --    0.01058   0.02329   0.03715   0.04206   0.04606
 Alpha virt. eigenvalues --    0.05497   0.06515   0.07513   0.07628   0.08154

 Mulliken charges:
               1
     1  C   -0.645940
     2  C    0.088242
     3  C    1.216486
     4  C   -0.822056
     5  C   -0.238121
     6  C   -0.087272
     7  H    0.155287
     8  C   -0.388924
     9  O   -0.208674
    10  H    0.101919
    11  H    0.135979
    12  H    0.136277
    13  H    0.141635
    14  Cl   0.415163
 Sum of Mulliken charges =   0.00000

 Dipole moment (field-independent basis, Debye):
    X=             -4.6027    Y=              0.2534    Z=              0.0000  Tot=              4.6097
 Quadrupole moment (field-independent basis, Debye-Ang):
   XX=            -61.1308   YY=            -53.2243   ZZ=            -61.2328
   XY=             -2.2473   XZ=             -0.0002   YZ=             -0.0001

  Exact polarizability: 129.565  -0.951 107.370   0.001   0.000  51.910
 Approx polarizability: 215.737  -4.388 170.613   0.000   0.000  78.018

 ESP charges:
               1
     1  C   -0.215365
     2  C    0.086522
     3  C    0.070437
     4  C   -0.061774
     5  C   -0.112663
     6  C   -0.015626
     7  H    0.087738
     8  C    0.375843
     9  O   -0.429561
    10  H   -0.005988
    11  H    0.118002
    12  H    0.084103
    13  H    0.113487
    14  Cl  -0.095155
 Sum of ESP charges =   0.00000

 Summary of Natural Population Analysis:

                                       Natural Population
                Natural  -----------------------------------------------
    Atom  No    Charge         Core      Valence    Rydberg      Total
 -----------------------------------------------------------------------
      C    1   -0.14792      1.99910     4.13186    0.01696     6.14792
      C    2   -0.19266      1.99879     4.17573    0.01815     6.19266
      C    3    0.00207      1.99852     3.97485    0.02456     5.99793
      C    4   -0.22333      1.99899     4.20436    0.01999     6.22333
      C    5   -0.15986      1.99916     4.14326    0.01745     6.15986
      C    6   -0.21292      1.99915     4.19570    0.01807     6.21292
      H    7    0.22709      0.00000     0.77103    0.00188     0.77291
      C    8    0.41602      1.99939     3.54358    0.04100     5.58398
      O    9   -0.50548      1.99976     6.49154    0.01417     8.50548
      H   10    0.10534      0.00000     0.89114    0.00352     0.89466
      H   11    0.21180      0.00000     0.78609    0.00212     0.78820
      H   12    0.21479      0.00000     0.78371    0.00150     0.78521
      H   13    0.21449      0.00000     0.78416    0.00135     0.78551
     Cl   14    0.05058      9.99960     6.92915    0.02068    16.94942
 =======================================================================
   * Total *    0.00000     25.99246    45.80614    0.20140    72.00000

                      1                      2                      3
                      A                      A                      A
 Frequencies --     73.6556               169.8883               200.7093
 Red. masses --      5.5408                 3.4939                14.7547
 Frc consts  --      0.0177                 0.0594                 0.3502
 IR Inten    --      4.0317                 2.6637                 2.9918

                      4                      5                      6
                      A                      A                      A
 Frequencies --    246.2378               329.3616               369.1119
 Red. masses --      3.1269                 6.4435                11.0385
 Frc consts  --      0.1117                 0.4118                 0.8861
 IR Inten    --      5.9608                 3.9251                 1.4842

                      7                      8                      9
                      A                      A                      A
 Frequencies --    443.2377               502.5363               518.7555
 Red. masses --      3.1657                 8.1247                 3.6612
 Frc consts  --      0.3664                 1.2089                 0.5805
 IR Inten    --      2.2512                 6.7571                 0.4386

                     10                     11                     12
                      A                      A                      A
 Frequencies --    664.2860               690.6982               720.3063
 Red. masses --      6.5753                 6.3352                 4.2123
 Frc consts  --      1.7095                 1.7807                 1.2877
 IR Inten    --     16.8275                24.5057                 0.0220

                     13                     14                     15
                      A                      A                      A
 Frequencies --    769.3867               854.8300               884.5098
 Red. masses --      1.1963                 5.4266                 1.3222
 Frc consts  --      0.4172                 2.3364                 0.6095
 IR Inten    --     68.9818                37.8152                 0.1102

                     16                     17                     18
                      A                      A                      A
 Frequencies --    970.2094              1006.2542              1022.7746
 Red. masses --      1.3597                 1.3240                 1.8057
 Frc consts  --      0.7541                 0.7898                 1.1129
 IR Inten    --      1.3461                 0.1023                 0.6976

                     19                     20                     21
                      A                      A                      A
 Frequencies --   1059.7466              1076.6802              1151.8578
 Red. masses --      3.4550                 3.4239                 1.6218
 Frc consts  --      2.2861                 2.3385                 1.2678
 IR Inten    --     21.1647                36.1403                 7.7165

                     22                     23                     24
                      A                      A                      A
 Frequencies --   1187.2530              1204.6267              1282.1200
 Red. masses --      1.1232                 2.9631                 1.4943
 Frc consts  --      0.9328                 2.5334                 1.4473
 IR Inten    --      4.1418                63.0005                 9.7211

                     25                     26                     27
                      A                      A                      A
 Frequencies --   1332.0849              1432.4283              1470.2416
 Red. masses --      7.9790                 1.2896                 1.9220
 Frc consts  --      8.3418                 1.5591                 2.4479
 IR Inten    --     20.3100                16.2088                11.8877

                     28                     29                     30
                      A                      A                      A
 Frequencies --   1496.8428              1602.1677              1629.0632
 Red. masses --      2.2639                 5.5188                 5.5968
 Frc consts  --      2.9885                 8.3467                 8.7511
 IR Inten    --     30.1735                24.2379                55.6245

                     31                     32                     33
                      A                      A                      A
 Frequencies --   1782.4743              2875.0882              3161.3466
 Red. masses --     10.6703                 1.0821                 1.0881
 Frc consts  --     19.9744                 5.2703                 6.4069
 IR Inten    --    277.7509               114.4293                 3.3347

                     34                     35                     36
                      A                      A                      A
 Frequencies --   3177.3465              3194.9153              3203.7827
 Red. masses --      1.0885                 1.0941                 1.0956
 Frc consts  --      6.4747                 6.5798                 6.6257
 IR Inten    --      3.6670                 9.3379                 3.5373

 - Thermochemistry -
 -------------------
 Temperature   298.150 Kelvin.  Pressure   1.00000 Atm.
 Atom     1 has atomic number  6 and mass  12.00000

 Molecular mass:   140.00289 amu.
 Principal axes and moments of inertia in atomic units:
                           1         2         3
     Eigenvalues --   847.574991380.817512228.39250
           X            0.99964   0.02673   0.00000
           Y           -0.02673   0.99964   0.00000
           Z            0.00000   0.00000   1.00000
 This molecule is an asymmetric top.
 Rotational symmetry number  1.
 Warning -- assumption of classical behavior for rotation
           may cause significant error
 Rotational temperatures (Kelvin)      0.10219     0.06273     0.03887
 Rotational constants (GHZ):           2.12930     1.30701     0.80988
 Zero-point vibrational energy     261723.9 (Joules/Mol)
                                   62.55351 (Kcal/Mol)
 Warning -- explicit consideration of   9 degrees of freedom as
           vibrations may cause significant error
 Vibrational temperatures:    105.97   244.43   288.78   354.28   473.88
          (Kelvin)            531.07   637.72   723.04   746.37   955.76
                              993.76  1036.36  1106.97  1229.91  1272.61
                             1395.91  1447.77  1471.54  1524.74  1549.10
                             1657.26  1708.19  1733.19  1844.68  1916.57
                             2060.94  2115.35  2153.62  2305.16  2343.86
                             2564.58  4136.61  4548.47  4571.49  4596.76
                             4609.52

 Zero-point correction=                           0.099685 (Hartree/Particle)
 Thermal correction to Energy=                    0.107219
 Thermal correction to Enthalpy=                  0.108164
 Thermal correction to Gibbs Free Energy=         0.066808
 Sum of electronic and zero-point Energies=           -805.183452
 Sum of electronic and thermal Energies=              -805.175919
 Sum of electronic and thermal Enthalpies=            -805.174974
 Sum of electronic and thermal Free Energies=         -805.216330

                     E (Thermal)             CV                S
                      KCal/Mol        Cal/Mol-Kelvin    Cal/Mol-Kelvin
 Total                   67.281             27.798             87.040
 Electronic               0.000              0.000              0.000
 Translational            0.889              2.981             40.721
 Rotational               0.889              2.981             29.346
 Vibrational             65.504             21.837             16.973
 Vibration     1          0.599              1.966              4.053
 Vibration     2          0.625              1.880              2.437
 Vibration     3          0.638              1.839              2.127
 Vibration     4          0.661              1.769              1.757
 Vibration     5          0.712              1.617              1.263
 Vibration     6          0.741              1.536              1.083
 Vibration     7          0.803              1.376              0.816
 Vibration     8          0.858              1.244              0.652
 Vibration     9          0.874              1.208              0.613

 Optimization completed.
    -- Stationary point found.
 Normal termination of Gaussian 09 at Tue Apr 23 11:22:05 2024.
