 Gaussian 09, Revision D.01,
 Gaussian 09:  ES64L-G09RevD.01 24-Apr-2013

 ----------------------------------------------------------------------
 # opt freq=noraman b3lyp/6-311+g(d,p) pop=(npa,hirshfeld,chelpg,mbs) g
 eom=connectivity
 ----------------------------------------------------------------------

 -------------------
 Title Card Required
 -------------------
 Symbolic Z-matrix:
 Charge =  0 Multiplicity = 1

 SCF Done:  E(RB3LYP) =  -384.980407275     A.U. after   14 cycles
 SCF Done:  E(RB3LYP) =  -384.991762037     A.U. after   15 cycles
 SCF Done:  E(RB3LYP) =  -384.994814596     A.U. after   12 cycles
 SCF Done:  E(RB3LYP) =  -384.994984701     A.U. after   10 cycles
 SCF Done:  E(RB3LYP) =  -384.994983249     A.U. after   10 cycles
 SCF Done:  E(RB3LYP) =  -384.994586076     A.U. after   12 cycles
 SCF Done:  E(RB3LYP) =  -384.994988540     A.U. after    6 cycles
 SCF Done:  E(RB3LYP) =  -384.994991612     A.U. after    9 cycles
 Optimization completed.
    -- Stationary point found.
 Normal termination of Gaussian 09 at Tue Apr 23 11:24:06 2024.

 ----------------------------------------------------------------------
 #N Geom=AllCheck Guess=TCheck SCRF=Check GenChk RB3LYP/6-311+G(d,p) Fr
 eq
 ----------------------------------------------------------------------

 Structure from the checkpoint file:  "13.chk"
 -------------------
 Title Card Required
 -------------------
 Charge =  0 Multiplicity = 1

                         Standard orientation:
 ---------------------------------------------------------------------
 Center     Atomic      Atomic             Coordinates (Angstroms)
 Number     Number       Type             X           Y           Z
 ---------------------------------------------------------------------
      1          6           0       -0.749321   -1.456652    0.000001
      2          6           0        0.313800   -0.541516    0.000003
      3          6           0        0.053017    0.850749    0.000000
      4          6           0       -1.284037    1.256742   -0.000002
      5          6           0       -2.333567    0.338611   -0.000003
      6          6           0       -2.070544   -1.029287   -0.000001
      7          1           0       -1.507227    2.318409   -0.000003
      8          6           0        1.674824   -1.120742    0.000006
      9          8           0        2.722778   -0.510671   -0.000010
     10          1           0        1.680421   -2.232426    0.000015
     11          1           0       -0.523362   -2.518623    0.000001
     12          1           0       -2.881785   -1.747571   -0.000001
     13          1           0       -3.357654    0.695496   -0.000004
     14          6           0        1.145927    1.887773    0.000004
     15          1           0        1.796181    1.782656    0.871336
     16          1           0        1.796189    1.782655   -0.871321
     17          1           0        0.714426    2.890712    0.000002
 ---------------------------------------------------------------------

 SCF Done:  E(RB3LYP) =  -384.994991612     A.U. after    1 cycles

 The electronic state is 1-A.
 Alpha  occ. eigenvalues --  -19.12304 -10.26396 -10.20797 -10.19884 -10.19771
 Alpha  occ. eigenvalues --  -10.19701 -10.19165 -10.18954 -10.16933  -1.05315
 Alpha  occ. eigenvalues --   -0.88159  -0.79105  -0.78139  -0.70513  -0.65275
 Alpha  occ. eigenvalues --   -0.62047  -0.57488  -0.52357  -0.49335  -0.47654
 Alpha  occ. eigenvalues --   -0.44586  -0.44538  -0.43552  -0.42605  -0.39801
 Alpha  occ. eigenvalues --   -0.39488  -0.37286  -0.37095  -0.36206  -0.27681
 Alpha  occ. eigenvalues --   -0.26568  -0.26362
 Alpha virt. eigenvalues --   -0.07573  -0.02926  -0.00169   0.00996   0.01521
 Alpha virt. eigenvalues --    0.01803   0.03496   0.04143   0.04675   0.05118
 Alpha virt. eigenvalues --    0.06269   0.06720   0.07104   0.07800   0.08961

 Mulliken charges:
               1
     1  C   -0.385971
     2  C    0.409413
     3  C    0.601223
     4  C   -0.356918
     5  C   -0.054505
     6  C   -0.133991
     7  H    0.121023
     8  C   -0.266375
     9  O   -0.273500
    10  H    0.101286
    11  H    0.128787
    12  H    0.130700
    13  H    0.133444
    14  C   -0.630653
    15  H    0.173264
    16  H    0.173265
    17  H    0.129507
 Sum of Mulliken charges =   0.00000

 Dipole moment (field-independent basis, Debye):
    X=             -3.1596    Y=             -0.1083    Z=              0.0000  Tot=              3.1615
 Quadrupole moment (field-independent basis, Debye-Ang):
   XX=            -58.9345   YY=            -46.6606   ZZ=            -55.9302
   XY=              0.6998   XZ=              0.0001   YZ=              0.0000

  Exact polarizability: 127.869   1.229 106.151   0.000   0.000  54.902
 Approx polarizability: 208.307   3.331 167.320   0.000   0.000  83.621

 ESP charges:
               1
     1  C   -0.137674
     2  C   -0.104437
     3  C    0.248505
     4  C   -0.232789
     5  C   -0.033611
     6  C   -0.082903
     7  H    0.125020
     8  C    0.470565
     9  O   -0.480541
    10  H   -0.032302
    11  H    0.104445
    12  H    0.089458
    13  H    0.088473
    14  C   -0.299907
    15  H    0.105384
    16  H    0.105386
    17  H    0.066928
 Sum of ESP charges =   0.00000

 Summary of Natural Population Analysis:

                                       Natural Population
                Natural  -----------------------------------------------
    Atom  No    Charge         Core      Valence    Rydberg      Total
 -----------------------------------------------------------------------
      C    1   -0.15332      1.99910     4.13678    0.01744     6.15332
      C    2   -0.17220      1.99888     4.15693    0.01638     6.17220
      C    3    0.03442      1.99899     3.95099    0.01560     5.96558
      C    4   -0.20872      1.99906     4.19228    0.01738     6.20872
      C    5   -0.16294      1.99916     4.14593    0.01785     6.16294
      C    6   -0.21916      1.99915     4.20174    0.01827     6.21916
      H    7    0.20729      0.00000     0.79097    0.00174     0.79271
      C    8    0.41578      1.99938     3.54488    0.03996     5.58422
      O    9   -0.53662      1.99977     6.52305    0.01381     8.53662
      H   10    0.10543      0.00000     0.89087    0.00370     0.89457
      H   11    0.20732      0.00000     0.79060    0.00208     0.79268
      H   12    0.21080      0.00000     0.78768    0.00152     0.78920
      H   13    0.20892      0.00000     0.78968    0.00140     0.79108
      C   14   -0.59672      1.99930     4.58689    0.01054     6.59672
      H   15    0.23091      0.00000     0.76755    0.00153     0.76909
      H   16    0.23091      0.00000     0.76755    0.00153     0.76909
      H   17    0.19790      0.00000     0.80050    0.00160     0.80210
 =======================================================================
   * Total *    0.00000     17.99279    45.82489    0.18232    64.00000

                      1                      2                      3
                      A                      A                      A
 Frequencies --     98.0562               164.7259               204.4733
 Red. masses --      4.4110                 1.3392                 1.7864
 Frc consts  --      0.0250                 0.0214                 0.0440
 IR Inten    --      4.7067                 0.0014                 0.8330

                      4                      5                      6
                      A                      A                      A
 Frequencies --    237.7884               260.0140               377.0104
 Red. masses --      6.0513                 2.5364                 2.7975
 Frc consts  --      0.2016                 0.1010                 0.2343
 IR Inten    --      7.2843                10.6357                 0.5732

                      7                      8                      9
                      A                      A                      A
 Frequencies --    421.1343               440.3486               519.6823
 Red. masses --      6.4770                 2.9842                 3.0686
 Frc consts  --      0.6768                 0.3409                 0.4883
 IR Inten    --      0.2356                 2.7479                 0.3318

                     10                     11                     12
                      A                      A                      A
 Frequencies --    570.6993               673.6749               718.3158
 Red. masses --      5.8611                 6.3773                 3.1777
 Frc consts  --      1.1247                 1.7052                 0.9660
 IR Inten    --      0.0591                24.0808                 3.0609

                     13                     14                     15
                      A                      A                      A
 Frequencies --    746.1013               766.2624               871.2981
 Red. masses --      4.4278                 1.2157                 4.4979
 Frc consts  --      1.4522                 0.4206                 2.0118
 IR Inten    --     14.1051                60.9604                22.6293

                     16                     17                     18
                      A                      A                      A
 Frequencies --    885.2380               964.6636              1007.8434
 Red. masses --      1.2762                 1.3483                 1.3201
 Frc consts  --      0.5892                 0.7392                 0.7900
 IR Inten    --      0.0181                 0.3131                 0.0201

                     19                     20                     21
                      A                      A                      A
 Frequencies --   1013.7786              1024.1687              1059.9786
 Red. masses --      1.6070                 1.7654                 1.5938
 Frc consts  --      0.9731                 1.0910                 1.0551
 IR Inten    --      2.2474                 1.4978                 2.7220

                     22                     23                     24
                      A                      A                      A
 Frequencies --   1070.6249              1146.0751              1187.9042
 Red. masses --      2.2681                 1.6598                 1.1164
 Frc consts  --      1.5317                 1.2845                 0.9282
 IR Inten    --      2.9872                10.6652                 2.9821

                     25                     26                     27
                      A                      A                      A
 Frequencies --   1211.6249              1219.5386              1302.4220
 Red. masses --      2.9375                 2.8662                 1.5276
 Frc consts  --      2.5408                 2.5116                 1.5267
 IR Inten    --     64.0198                 0.2974                 5.5367

                     28                     29                     30
                      A                      A                      A
 Frequencies --   1338.2447              1419.6039              1431.0198
 Red. masses --      6.5716                 1.2204                 1.2266
 Frc consts  --      6.9341                 1.4490                 1.4800
 IR Inten    --     15.7616                 6.7310                 4.3604

                     31                     32                     33
                      A                      A                      A
 Frequencies --   1468.6456              1475.9980              1493.9129
 Red. masses --      1.4945                 1.0434                 1.3924
 Frc consts  --      1.8993                 1.3393                 1.8309
 IR Inten    --      2.4197                 7.9445                18.5675

                     34                     35                     36
                      A                      A                      A
 Frequencies --   1512.2936              1605.8060              1642.0357
 Red. masses --      2.4725                 5.4819                 5.5539
 Frc consts  --      3.3316                 8.3285                 8.8230
 IR Inten    --     17.0375                32.1564                26.6443

                     37                     38                     39
                      A                      A                      A
 Frequencies --   1760.5156              2875.2998              3039.1125
 Red. masses --     10.0848                 1.0822                 1.0352
 Frc consts  --     18.4161                 5.2712                 5.6335
 IR Inten    --    306.9630               123.1807                16.3781

                     40                     41                     42
                      A                      A                      A
 Frequencies --   3096.0923              3109.6488              3157.0576
 Red. masses --      1.0989                 1.1038                 1.0872
 Frc consts  --      6.2064                 6.2888                 6.3843
 IR Inten    --      7.0623                18.0479                 7.5368

                     43                     44                     45
                      A                      A                      A
 Frequencies --   3162.8475              3177.0265              3191.9398
 Red. masses --      1.0881                 1.0920                 1.0971
 Frc consts  --      6.4131                 6.4939                 6.5860
 IR Inten    --      2.0659                17.7877                15.3623

 - Thermochemistry -
 -------------------
 Temperature   298.150 Kelvin.  Pressure   1.00000 Atm.
 Atom     1 has atomic number  6 and mass  12.00000

 Molecular mass:   120.05751 amu.
 Principal axes and moments of inertia in atomic units:
                           1         2         3
     Eigenvalues --   604.404291236.749941830.22457
           X            0.99958   0.02903   0.00000
           Y           -0.02903   0.99958   0.00000
           Z            0.00000   0.00000   1.00000
 This molecule is an asymmetric top.
 Rotational symmetry number  1.
 Warning -- assumption of classical behavior for rotation
           may cause significant error
 Rotational temperatures (Kelvin)      0.14330     0.07003     0.04732
 Rotational constants (GHZ):           2.98598     1.45926     0.98608
 Zero-point vibrational energy     359600.7 (Joules/Mol)
                                   85.94663 (Kcal/Mol)
 Warning -- explicit consideration of  10 degrees of freedom as
           vibrations may cause significant error
 Vibrational temperatures:    141.08   237.00   294.19   342.12   374.10
          (Kelvin)            542.43   605.92   633.56   747.71   821.11
                              969.27  1033.49  1073.47  1102.48  1253.60
                             1273.66  1387.93  1450.06  1458.60  1473.55
                             1525.07  1540.39  1648.94  1709.13  1743.26
                             1754.64  1873.89  1925.43  2042.49  2058.92
                             2113.05  2123.63  2149.40  2175.85  2310.39
                             2362.52  2532.99  4136.91  4372.60  4454.58
                             4474.09  4542.30  4550.63  4571.03  4592.48

 Zero-point correction=                           0.136965 (Hartree/Particle)
 Thermal correction to Energy=                    0.144831
 Thermal correction to Enthalpy=                  0.145775
 Thermal correction to Gibbs Free Energy=         0.104597
 Sum of electronic and zero-point Energies=           -384.858027
 Sum of electronic and thermal Energies=              -384.850161
 Sum of electronic and thermal Enthalpies=            -384.849216
 Sum of electronic and thermal Free Energies=         -384.890395

                     E (Thermal)             CV                S
                      KCal/Mol        Cal/Mol-Kelvin    Cal/Mol-Kelvin
 Total                   90.883             29.854             86.667
 Electronic               0.000              0.000              0.000
 Translational            0.889              2.981             40.263
 Rotational               0.889              2.981             28.705
 Vibrational             89.105             23.892             17.699
 Vibration     1          0.603              1.951              3.493
 Vibration     2          0.623              1.886              2.495
 Vibration     3          0.640              1.834              2.092
 Vibration     4          0.656              1.783              1.819
 Vibration     5          0.668              1.746              1.662
 Vibration     6          0.748              1.519              1.051
 Vibration     7          0.784              1.424              0.888
 Vibration     8          0.800              1.382              0.826
 Vibration     9          0.875              1.206              0.611
 Vibration    10          0.927              1.095              0.503

 Optimization completed.
    -- Stationary point found.
 Normal termination of Gaussian 09 at Tue Apr 23 11:25:23 2024.
