 Gaussian 09, Revision D.01,
 Gaussian 09:  ES64L-G09RevD.01 24-Apr-2013

 ----------------------------------------------------------------------
 # opt freq=noraman b3lyp/6-311+g(d,p) geom=connectivity pop=(hirshfeld
 ,chelpg,mbs,npa)
 ----------------------------------------------------------------------

 -------------------
 Title Card Required
 -------------------
 Symbolic Z-matrix:
 Charge =  0 Multiplicity = 1

 SCF Done:  E(RB3LYP) =  -897.774488516     A.U. after   16 cycles
 SCF Done:  E(RB3LYP) =  -897.781682167     A.U. after   15 cycles
 SCF Done:  E(RB3LYP) =  -897.780654400     A.U. after   16 cycles
 SCF Done:  E(RB3LYP) =  -897.783616618     A.U. after   12 cycles
 SCF Done:  E(RB3LYP) =  -897.788191526     A.U. after   16 cycles
 SCF Done:  E(RB3LYP) =  -897.789383309     A.U. after   15 cycles
 SCF Done:  E(RB3LYP) =  -897.790792889     A.U. after   15 cycles
 SCF Done:  E(RB3LYP) =  -897.790892813     A.U. after   13 cycles
 SCF Done:  E(RB3LYP) =  -897.790911939     A.U. after   12 cycles
 SCF Done:  E(RB3LYP) =  -897.790923693     A.U. after   12 cycles
 SCF Done:  E(RB3LYP) =  -897.791826549     A.U. after   13 cycles
 SCF Done:  E(RB3LYP) =  -897.791827269     A.U. after   12 cycles
 SCF Done:  E(RB3LYP) =  -897.791828062     A.U. after   13 cycles
 SCF Done:  E(RB3LYP) =  -897.791827992     A.U. after   12 cycles
 SCF Done:  E(RB3LYP) =  -897.791828100     A.U. after   11 cycles
 SCF Done:  E(RB3LYP) =  -897.791828113     A.U. after   10 cycles
 SCF Done:  E(RB3LYP) =  -897.791828141     A.U. after   10 cycles
 SCF Done:  E(RB3LYP) =  -897.791828129     A.U. after   11 cycles
 SCF Done:  E(RB3LYP) =  -897.791828127     A.U. after    9 cycles
 Optimization completed.
    -- Stationary point found.
 Normal termination of Gaussian 09 at Wed Dec 21 11:40:58 2022.

 ----------------------------------------------------------------------
 #N Geom=AllCheck Guess=TCheck SCRF=Check GenChk RB3LYP/6-311+G(d,p) Fr
 eq
 ----------------------------------------------------------------------

 Structure from the checkpoint file:  "AcO_methylthioethercharges.chk"
 -------------------
 Title Card Required
 -------------------
 Charge =  0 Multiplicity = 1

                         Standard orientation:
 ---------------------------------------------------------------------
 Center     Atomic      Atomic             Coordinates (Angstroms)
 Number     Number       Type             X           Y           Z
 ---------------------------------------------------------------------
      1          6           0        0.268870    1.416196    0.370693
      2          6           0       -1.119984    1.317215    0.340102
      3          6           0       -1.738314    0.237644   -0.296886
      4          6           0       -0.945925   -0.732940   -0.918885
      5          6           0        0.442741   -0.641161   -0.894367
      6          6           0        1.037140    0.434197   -0.242567
      7          1           0        0.760326    2.249982    0.857267
      8          1           0       -1.727566    2.082382    0.807989
      9          1           0       -1.420348   -1.561661   -1.430627
     10          1           0        1.052798   -1.395747   -1.372689
     11         16           0       -3.531438    0.127099   -0.361674
     12          6           0       -3.860001   -0.890828    1.130122
     13          1           0       -3.521558   -0.379945    2.031654
     14          1           0       -4.941820   -1.024512    1.176618
     15          1           0       -3.380551   -1.866340    1.048257
     16          8           0        2.420856    0.625364   -0.252016
     17          6           0        3.258004   -0.349541    0.232729
     18          8           0        2.877099   -1.390750    0.691007
     19          6           0        4.688979    0.098012    0.103656
     20          1           0        4.915073    0.331892   -0.938954
     21          1           0        4.845958    1.009833    0.684494
     22          1           0        5.348010   -0.689138    0.463267
 ---------------------------------------------------------------------

 SCF Done:  E(RB3LYP) =  -897.791828127     A.U. after    2 cycles

 The electronic state is 1-A.
 Alpha  occ. eigenvalues --  -88.84597 -19.18765 -19.12875 -10.32172 -10.25212
 Alpha  occ. eigenvalues --  -10.21200 -10.19752 -10.19347 -10.19309 -10.19270
 Alpha  occ. eigenvalues --  -10.19152 -10.19135  -7.93185  -5.89603  -5.89232
 Alpha  occ. eigenvalues --   -5.88514  -1.12717  -1.04645  -0.88035  -0.80879
 Alpha  occ. eigenvalues --   -0.77613  -0.76929  -0.73875  -0.66929  -0.63653
 Alpha  occ. eigenvalues --   -0.61921  -0.58113  -0.51136  -0.50833  -0.49847
 Alpha  occ. eigenvalues --   -0.48404  -0.46709  -0.46008  -0.44311  -0.43404
 Alpha  occ. eigenvalues --   -0.42955  -0.42874  -0.41625  -0.40173  -0.38717
 Alpha  occ. eigenvalues --   -0.37555  -0.36850  -0.33856  -0.32429  -0.29880
 Alpha  occ. eigenvalues --   -0.27260  -0.25742  -0.23445
 Alpha virt. eigenvalues --   -0.03893  -0.02955  -0.01050  -0.00272   0.00454
 Alpha virt. eigenvalues --    0.01162   0.01999   0.02522   0.03787   0.04112
 Alpha virt. eigenvalues --    0.04464   0.04648   0.05352   0.05980   0.06374

 Mulliken charges:
               1
     1  C   -0.047402
     2  C   -0.619726
     3  C    1.208395
     4  C   -0.570502
     5  C   -0.104379
     6  C   -0.200872
     7  H    0.129548
     8  H    0.151682
     9  H    0.151524
    10  H    0.137362
    11  S    0.153032
    12  C   -0.747906
    13  H    0.174190
    14  H    0.177039
    15  H    0.175442
    16  O   -0.054020
    17  C    0.072937
    18  O   -0.234567
    19  C   -0.464661
    20  H    0.168089
    21  H    0.168516
    22  H    0.176279
 Sum of Mulliken charges =   0.00000

 Dipole moment (field-independent basis, Debye):
    X=              1.5279    Y=              0.7667    Z=              0.4649  Tot=              1.7715
 Quadrupole moment (field-independent basis, Debye-Ang):
   XX=            -69.2500   YY=            -79.1118   ZZ=            -78.6338
   XY=              7.6861   XZ=             -7.1644   YZ=              5.3111

  Exact polarizability: 186.742   4.608 116.716  -4.129   7.127  97.791
 Approx polarizability: 238.323   6.826 197.582  -5.591  17.641 154.768

 ESP charges:
               1
     1  C   -0.244931
     2  C   -0.075097
     3  C    0.167706
     4  C   -0.057905
     5  C   -0.276222
     6  C    0.417330
     7  H    0.149627
     8  H    0.093938
     9  H    0.090581
    10  H    0.175024
    11  S   -0.298469
    12  C    0.022537
    13  H    0.014781
    14  H    0.085798
    15  H    0.020876
    16  O   -0.527253
    17  C    0.887667
    18  O   -0.589092
    19  C   -0.402479
    20  H    0.117625
    21  H    0.121742
    22  H    0.106216
 Sum of ESP charges =   0.00000

 Summary of Natural Population Analysis:

                                       Natural Population
                Natural  -----------------------------------------------
    Atom  No    Charge         Core      Valence    Rydberg      Total
 -----------------------------------------------------------------------
      C    1   -0.22699      1.99903     4.21112    0.01684     6.22699
      C    2   -0.19019      1.99901     4.17094    0.02024     6.19019
      C    3   -0.19184      1.99880     4.16764    0.02541     6.19184
      C    4   -0.18784      1.99901     4.16855    0.02028     6.18784
      C    5   -0.22351      1.99902     4.20791    0.01658     6.22351
      C    6    0.30324      1.99869     3.67471    0.02336     5.69676
      H    7    0.22170      0.00000     0.77657    0.00173     0.77830
      H    8    0.21947      0.00000     0.77851    0.00202     0.78053
      H    9    0.21942      0.00000     0.77860    0.00198     0.78058
      H   10    0.22556      0.00000     0.77272    0.00172     0.77444
      S   11    0.19911      9.99916     5.75728    0.04445    15.80089
      C   12   -0.69292      1.99927     4.68334    0.01031     6.69292
      H   13    0.20630      0.00000     0.79141    0.00230     0.79370
      H   14    0.21679      0.00000     0.78172    0.00149     0.78321
      H   15    0.20707      0.00000     0.79064    0.00229     0.79293
      O   16   -0.56562      1.99968     6.54729    0.01865     8.56562
      C   17    0.80956      1.99944     3.14374    0.04727     5.19044
      O   18   -0.57009      1.99973     6.55834    0.01203     8.57009
      C   19   -0.66896      1.99927     4.66148    0.00821     6.66896
      H   20    0.23131      0.00000     0.76737    0.00132     0.76869
      H   21    0.23173      0.00000     0.76697    0.00130     0.76827
      H   22    0.22670      0.00000     0.77210    0.00119     0.77330
 =======================================================================
   * Total *    0.00000     31.99011    63.72893    0.28096    96.00000

                      1                      2                      3
                      A                      A                      A
 Frequencies --     16.0567                27.1071                49.6588
 Red. masses --      3.6678                 4.7970                 2.0382
 Frc consts  --      0.0006                 0.0021                 0.0030
 IR Inten    --      3.7108                 0.5235                 1.8431

                      4                      5                      6
                      A                      A                      A
 Frequencies --     66.0790                87.6583               132.5661
 Red. masses --      1.8917                 2.5710                 4.2489
 Frc consts  --      0.0049                 0.0116                 0.0440
 IR Inten    --      0.9040                 1.2139                 1.3792

                      7                      8                      9
                      A                      A                      A
 Frequencies --    155.5342               208.4452               262.0486
 Red. masses --      1.0689                 5.3053                 7.0844
 Frc consts  --      0.0152                 0.1358                 0.2866
 IR Inten    --      0.0817                 0.8260                 1.9114

                     10                     11                     12
                      A                      A                      A
 Frequencies --    294.1531               370.7562               411.4297
 Red. masses --      4.3024                 5.5857                 4.7302
 Frc consts  --      0.2193                 0.4524                 0.4718
 IR Inten    --      2.8560                 4.5303                 1.1136

                     13                     14                     15
                      A                      A                      A
 Frequencies --    424.0302               432.7080               531.9433
 Red. masses --      3.0040                 5.2484                 2.8463
 Frc consts  --      0.3182                 0.5790                 0.4745
 IR Inten    --      0.0587                 1.9476                20.3829

                     16                     17                     18
                      A                      A                      A
 Frequencies --    593.3270               595.9322               645.2562
 Red. masses --      4.6659                 2.8223                 6.8538
 Frc consts  --      0.9678                 0.5905                 1.6813
 IR Inten    --     11.3676                 5.3464                 0.1369

                     19                     20                     21
                      A                      A                      A
 Frequencies --    684.1798               698.4079               735.2796
 Red. masses --      5.9266                 5.5609                 4.0539
 Frc consts  --      1.6345                 1.5981                 1.2913
 IR Inten    --      3.2631                 3.8391                 1.9223

                     22                     23                     24
                      A                      A                      A
 Frequencies --    808.6171               832.2446               857.8724
 Red. masses --      3.1257                 1.2615                 2.1740
 Frc consts  --      1.2041                 0.5148                 0.9427
 IR Inten    --      6.8810                 0.8721                34.1092

                     25                     26                     27
                      A                      A                      A
 Frequencies --    923.3069               964.7197               970.4018
 Red. masses --      4.8519                 1.3908                 1.1784
 Frc consts  --      2.4370                 0.7627                 0.6538
 IR Inten    --     55.8865                 0.6237                 2.0646

                     28                     29                     30
                      A                      A                      A
 Frequencies --    981.0029               993.7762              1019.1801
 Red. masses --      1.3579                 1.3164                 1.8702
 Frc consts  --      0.7700                 0.7659                 1.1446
 IR Inten    --      0.1889                27.4670                80.3641

                     31                     32                     33
                      A                      A                      A
 Frequencies --   1032.5736              1063.4401              1102.0237
 Red. masses --      3.1816                 1.7766                 3.2610
 Frc consts  --      1.9987                 1.1838                 2.3334
 IR Inten    --     26.2292                 6.5894                 1.9351

                     34                     35                     36
                      A                      A                      A
 Frequencies --   1120.2120              1185.4389              1210.9546
 Red. masses --      1.3346                 1.2951                 3.6254
 Frc consts  --      0.9867                 1.0723                 3.1323
 IR Inten    --      6.6347                95.8697               706.7716

                     37                     38                     39
                      A                      A                      A
 Frequencies --   1223.9470              1308.5409              1320.2566
 Red. masses --      3.2194                 3.6618                 1.6670
 Frc consts  --      2.8415                 3.6941                 1.7120
 IR Inten    --     12.0774                 2.4393                 3.0536

                     40                     41                     42
                      A                      A                      A
 Frequencies --   1356.4773              1399.8697              1424.1567
 Red. masses --      1.1537                 1.3026                 2.9025
 Frc consts  --      1.2507                 1.5040                 3.4685
 IR Inten    --      3.9121                56.6617                 3.3175

                     43                     44                     45
                      A                      A                      A
 Frequencies --   1465.1148              1471.4414              1475.8416
 Red. masses --      1.0563                 1.0482                 1.0454
 Frc consts  --      1.3359                 1.3371                 1.3416
 IR Inten    --     12.7267                16.0375                10.2761

                     46                     47                     48
                      A                      A                      A
 Frequencies --   1480.9262              1515.9470              1614.2899
 Red. masses --      1.0534                 2.3318                 7.1197
 Frc consts  --      1.3612                 3.1572                10.9313
 IR Inten    --      9.0564                75.7991                 3.1980

                     49                     50                     51
                      A                      A                      A
 Frequencies --   1627.3125              1820.8669              3041.1542
 Red. masses --      5.9510                11.6443                 1.0283
 Frc consts  --      9.2850                22.7468                 5.6036
 IR Inten    --     19.3426               237.2866                28.5223

                     52                     53                     54
                      A                      A                      A
 Frequencies --   3051.6497              3112.0109              3128.4181
 Red. masses --      1.0364                 1.0998                 1.1081
 Frc consts  --      5.6867                 6.2756                 6.3897
 IR Inten    --      1.4267                 3.7656                 8.4934

                     55                     56                     57
                      A                      A                      A
 Frequencies --   3129.8716              3158.5266              3183.4377
 Red. masses --      1.1046                 1.1032                 1.0884
 Frc consts  --      6.3753                 6.4847                 6.4988
 IR Inten    --      9.0743                 6.6712                 2.7861

                     58                     59                     60
                      A                      A                      A
 Frequencies --   3185.5394              3198.0976              3209.7443
 Red. masses --      1.0896                 1.0952                 1.0943
 Frc consts  --      6.5148                 6.5999                 6.6423
 IR Inten    --      2.2013                 3.7304                 3.0666

 - Thermochemistry -
 -------------------
 Temperature   298.150 Kelvin.  Pressure   1.00000 Atm.
 Atom     1 has atomic number  6 and mass  12.00000

 Molecular mass:   182.04015 amu.
 Principal axes and moments of inertia in atomic units:
                           1         2         3
     Eigenvalues --   696.052885257.308405477.55780
           X            0.99987   0.01186  -0.01077
           Y           -0.01120   0.99816   0.05952
           Z            0.01146  -0.05940   0.99817
 This molecule is an asymmetric top.
 Rotational symmetry number  1.
 Warning -- assumption of classical behavior for rotation
           may cause significant error
 Rotational temperatures (Kelvin)      0.12444     0.01647     0.01581
 Rotational constants (GHZ):           2.59282     0.34328     0.32948
 Zero-point vibrational energy     444961.5 (Joules/Mol)
                                  106.34836 (Kcal/Mol)
 Warning -- explicit consideration of  17 degrees of freedom as
           vibrations may cause significant error
 Vibrational temperatures:     23.10    39.00    71.45    95.07   126.12
          (Kelvin)            190.73   223.78   299.91   377.03   423.22
                              533.43   591.95   610.08   622.57   765.35
                              853.66   857.41   928.38   984.38  1004.85
                             1057.90  1163.42  1197.41  1234.29  1328.43
                             1388.01  1396.19  1411.44  1429.82  1466.37
                             1485.64  1530.05  1585.56  1611.73  1705.58
                             1742.29  1760.98  1882.70  1899.55  1951.67
                             2014.10  2049.04  2107.97  2117.07  2123.40
                             2130.72  2181.11  2322.60  2341.34  2619.82
                             4375.54  4390.64  4477.48  4501.09  4503.18
                             4544.41  4580.25  4583.27  4601.34  4618.10

 Zero-point correction=                           0.169477 (Hartree/Particle)
 Thermal correction to Energy=                    0.182138
 Thermal correction to Enthalpy=                  0.183082
 Thermal correction to Gibbs Free Energy=         0.127152
 Sum of electronic and zero-point Energies=           -897.622351
 Sum of electronic and thermal Energies=              -897.609690
 Sum of electronic and thermal Enthalpies=            -897.608746
 Sum of electronic and thermal Free Energies=         -897.664676

                     E (Thermal)             CV                S
                      KCal/Mol        Cal/Mol-Kelvin    Cal/Mol-Kelvin
 Total                  114.293             44.525            117.714
 Electronic               0.000              0.000              0.000
 Translational            0.889              2.981             41.504
 Rotational               0.889              2.981             31.372
 Vibrational            112.516             38.564             44.838
 Vibration     1          0.593              1.986              7.070
 Vibration     2          0.593              1.984              6.031
 Vibration     3          0.595              1.978              4.831
 Vibration     4          0.597              1.970              4.267
 Vibration     5          0.601              1.958              3.712
 Vibration     6          0.613              1.921              2.908
 Vibration     7          0.620              1.896              2.603
 Vibration     8          0.642              1.828              2.057
 Vibration     9          0.669              1.742              1.648
 Vibration    10          0.689              1.685              1.450
 Vibration    11          0.743              1.532              1.077
 Vibration    12          0.775              1.445              0.922
 Vibration    13          0.786              1.418              0.878
 Vibration    14          0.794              1.399              0.850
 Vibration    15          0.887              1.179              0.583
 Vibration    16          0.951              1.046              0.461
 Vibration    17          0.954              1.040              0.457

 Optimization completed.
    -- Stationary point found.
 Normal termination of Gaussian 09 at Wed Dec 21 11:44:30 2022.
