 Gaussian 09, Revision D.01,
 Gaussian 09:  ES64L-G09RevD.01 24-Apr-2013

 ----------------------------------------------------------------------
 # opt freq=noraman b3lyp/6-311+g(d,p) geom=connectivity pop=(hirshfeld
 ,chelpg,mbs,npa)
 ----------------------------------------------------------------------

 -------------------
 Title Card Required
 -------------------
 Symbolic Z-matrix:
 Charge =  0 Multiplicity = 1

 SCF Done:  E(RB3LYP) =  -669.848424141     A.U. after   14 cycles
 Optimization completed.
    -- Stationary point found.
 Normal termination of Gaussian 09 at Tue Dec 20 16:12:00 2022.

 ----------------------------------------------------------------------
 #N Geom=AllCheck Guess=TCheck SCRF=Check GenChk RB3LYP/6-311+G(d,p) Fr
 eq
 ----------------------------------------------------------------------

 Structure from the checkpoint file:  "methylthioethercharges.chk"
 -------------------
 Title Card Required
 -------------------
 Charge =  0 Multiplicity = 1

                         Standard orientation:
 ---------------------------------------------------------------------
 Center     Atomic      Atomic             Coordinates (Angstroms)
 Number     Number       Type             X           Y           Z
 ---------------------------------------------------------------------
      1          6           0        1.701612    1.375440    0.000011
      2          6           0        0.334140    1.095888    0.000007
      3          6           0       -0.109903   -0.230036   -0.000019
      4          6           0        0.835919   -1.266604   -0.000009
      5          6           0        2.195047   -0.977437    0.000003
      6          6           0        2.638109    0.346506   -0.000008
      7          1           0        2.029515    2.409267    0.000035
      8          1           0       -0.370257    1.917053    0.000010
      9          1           0        0.502526   -2.298809    0.000006
     10          1           0        2.911867   -1.791136   -0.000022
     11          1           0        3.698538    0.569517   -0.000004
     12         16           0       -1.824254   -0.719998    0.000015
     13          6           0       -2.724988    0.861568   -0.000019
     14          1           0       -2.511187    1.445709   -0.896039
     15          1           0       -3.781230    0.590732   -0.000081
     16          1           0       -2.511326    1.445678    0.896058
 ---------------------------------------------------------------------

 SCF Done:  E(RB3LYP) =  -669.848424141     A.U. after    1 cycles

 The electronic state is 1-A.
 Alpha  occ. eigenvalues --  -88.85561 -10.21399 -10.20578 -10.18217 -10.18162
 Alpha  occ. eigenvalues --  -10.18132 -10.18071 -10.17594  -7.94165  -5.90576
 Alpha  occ. eigenvalues --   -5.90165  -5.89543  -0.87087  -0.80624  -0.75624
 Alpha  occ. eigenvalues --   -0.74380  -0.66130  -0.61438  -0.58728  -0.52299
 Alpha  occ. eigenvalues --   -0.46669  -0.46118  -0.45047  -0.44268  -0.42958
 Alpha  occ. eigenvalues --   -0.40352  -0.38157  -0.36685  -0.35334  -0.32593
 Alpha  occ. eigenvalues --   -0.29437  -0.26311  -0.21662
 Alpha virt. eigenvalues --   -0.02065  -0.01678  -0.00647   0.00483   0.01945
 Alpha virt. eigenvalues --    0.03038   0.03369   0.04383   0.04820   0.05088
 Alpha virt. eigenvalues --    0.06505   0.06928   0.07044   0.08030   0.08459

 Mulliken charges:
               1
     1  C   -0.574567
     2  C    0.291681
     3  C    0.877531
     4  C   -0.308124
     5  C   -0.374486
     6  C   -0.136730
     7  H    0.125884
     8  H    0.126991
     9  H    0.131567
    10  H    0.127131
    11  H    0.124597
    12  S   -0.553890
    13  C   -0.390556
    14  H    0.177130
    15  H    0.178703
    16  H    0.177139
 Sum of Mulliken charges =   0.00000

 Dipole moment (field-independent basis, Debye):
    X=             -0.2084    Y=              1.3674    Z=              0.0000  Tot=              1.3831
 Quadrupole moment (field-independent basis, Debye-Ang):
   XX=            -48.9982   YY=            -51.7441   ZZ=            -60.4961
   XY=             -3.9614   XZ=              0.0000   YZ=              0.0000

  Exact polarizability: 140.160   0.059 103.119   0.000   0.000  62.568
 Approx polarizability: 205.983   2.713 173.476   0.000   0.000  94.632

 ESP charges:
               1
     1  C   -0.131717
     2  C   -0.132685
     3  C    0.193737
     4  C   -0.179170
     5  C   -0.081306
     6  C   -0.063210
     7  H    0.095332
     8  H    0.122125
     9  H    0.136074
    10  H    0.084057
    11  H    0.076813
    12  S   -0.260326
    13  C   -0.028850
    14  H    0.029968
    15  H    0.109184
    16  H    0.029973
 Sum of ESP charges =   0.00000

 Summary of Natural Population Analysis:

                                       Natural Population
                Natural  -----------------------------------------------
    Atom  No    Charge         Core      Valence    Rydberg      Total
 -----------------------------------------------------------------------
      C    1   -0.18629      1.99916     4.16882    0.01831     6.18629
      C    2   -0.24373      1.99901     4.22659    0.01813     6.24373
      C    3   -0.17283      1.99884     4.15306    0.02093     6.17283
      C    4   -0.22164      1.99904     4.20377    0.01884     6.22164
      C    5   -0.18914      1.99916     4.17178    0.01820     6.18914
      C    6   -0.22366      1.99916     4.20570    0.01881     6.22366
      H    7    0.20595      0.00000     0.79256    0.00148     0.79405
      H    8    0.20716      0.00000     0.79076    0.00208     0.79284
      H    9    0.21199      0.00000     0.78617    0.00184     0.78801
      H   10    0.20738      0.00000     0.79115    0.00147     0.79262
      H   11    0.20710      0.00000     0.79147    0.00142     0.79290
      S   12    0.26539      9.99911     5.69225    0.04325    15.73461
      C   13   -0.71608      1.99928     4.70602    0.01079     6.71608
      H   14    0.21064      0.00000     0.78705    0.00231     0.78936
      H   15    0.22710      0.00000     0.77162    0.00128     0.77290
      H   16    0.21064      0.00000     0.78705    0.00231     0.78936
 =======================================================================
   * Total *    0.00000     23.99275    41.82581    0.18145    66.00000

                      1                      2                      3
                      A                      A                      A
 Frequencies --     33.0889               167.4606               198.5392
 Red. masses --      3.4567                 2.6123                 3.1951
 Frc consts  --      0.0022                 0.0432                 0.0742
 IR Inten    --      2.2751                 0.1719                 0.7362

                      4                      5                      6
                      A                      A                      A
 Frequencies --    227.0164               332.3929               410.4026
 Red. masses --      1.2552                 4.6113                 2.9243
 Frc consts  --      0.0381                 0.3002                 0.2902
 IR Inten    --      0.0054                 1.3111                 0.0035

                      7                      8                      9
                      A                      A                      A
 Frequencies --    417.4929               476.8480               631.0501
 Red. masses --      7.7977                 3.2689                 6.4088
 Frc consts  --      0.8008                 0.4379                 1.5037
 IR Inten    --      1.3172                 8.8491                 0.0822

                     10                     11                     12
                      A                      A                      A
 Frequencies --    695.4628               697.4443               724.4530
 Red. masses --      5.9935                 2.5217                 6.7624
 Frc consts  --      1.7080                 0.7227                 2.0911
 IR Inten    --      9.4414                17.8192                 4.9281

                     13                     14                     15
                      A                      A                      A
 Frequencies --    741.5334               839.9355               898.0190
 Red. masses --      1.4569                 1.2545                 1.3419
 Frc consts  --      0.4720                 0.5214                 0.6376
 IR Inten    --     68.1317                 0.0387                 0.6857

                     16                     17                     18
                      A                      A                      A
 Frequencies --    971.5393               976.7222               985.8679
 Red. masses --      1.1885                 1.3554                 1.3516
 Frc consts  --      0.6609                 0.7618                 0.7740
 IR Inten    --      4.2934                 0.1252                 6.0698

                     19                     20                     21
                      A                      A                      A
 Frequencies --    997.7167              1012.2070              1046.0311
 Red. masses --      1.2748                 5.2778                 2.8476
 Frc consts  --      0.7477                 3.1860                 1.8357
 IR Inten    --      0.0648                 1.2030                14.0655

                     22                     23                     24
                      A                      A                      A
 Frequencies --   1101.4065              1107.1649              1182.7040
 Red. masses --      2.8365                 1.6599                 1.1079
 Frc consts  --      2.0274                 1.1988                 0.9130
 IR Inten    --     27.3036                 5.7405                 0.4533

                     25                     26                     27
                      A                      A                      A
 Frequencies --   1208.8432              1314.1064              1348.0878
 Red. masses --      1.1492                 3.7386                 1.4533
 Frc consts  --      0.9894                 3.8038                 1.5562
 IR Inten    --      1.1965                 3.3701                 0.2673

                     28                     29                     30
                      A                      A                      A
 Frequencies --   1366.1530              1466.2812              1468.8317
 Red. masses --      1.2398                 1.0513                 2.0035
 Frc consts  --      1.3633                 1.3318                 2.5467
 IR Inten    --      1.2168                 9.9199                 7.1712

                     31                     32                     33
                      A                      A                      A
 Frequencies --   1486.4953              1510.9393              1611.6903
 Red. masses --      1.0925                 1.9772                 5.3576
 Frc consts  --      1.4223                 2.6595                 8.1994
 IR Inten    --     24.6266                34.6430                 3.9718

                     34                     35                     36
                      A                      A                      A
 Frequencies --   1626.8247              3038.4216              3119.4513
 Red. masses --      5.3142                 1.0297                 1.1082
 Frc consts  --      8.2865                 5.6012                 6.3534
 IR Inten    --     45.0318                23.5570                 8.9251

                     37                     38                     39
                      A                      A                      A
 Frequencies --   3130.9405              3160.9179              3167.0688
 Red. masses --      1.1028                 1.0855                 1.0881
 Frc consts  --      6.3694                 6.3902                 6.4304
 IR Inten    --      4.7448                 3.0275                 2.1385

                     40                     41                     42
                      A                      A                      A
 Frequencies --   3177.3267              3190.6025              3205.7873
 Red. masses --      1.0927                 1.0964                 1.0914
 Frc consts  --      6.4995                 6.5762                 6.6086
 IR Inten    --     17.1782                19.2263                 6.7653

 - Thermochemistry -
 -------------------
 Temperature   298.150 Kelvin.  Pressure   1.00000 Atm.
 Atom     1 has atomic number  6 and mass  12.00000

 Molecular mass:   124.03467 amu.
 Principal axes and moments of inertia in atomic units:
                           1         2         3
     Eigenvalues --   427.038531561.818831977.29874
           X            0.99956  -0.02982   0.00000
           Y            0.02982   0.99956   0.00000
           Z            0.00000   0.00000   1.00000
 This molecule is an asymmetric top.
 Rotational symmetry number  1.
 Rotational temperatures (Kelvin)      0.20282     0.05546     0.04380
 Rotational constants (GHZ):           4.22618     1.15554     0.91273
 Zero-point vibrational energy     337773.2 (Joules/Mol)
                                   80.72973 (Kcal/Mol)
 Warning -- explicit consideration of   8 degrees of freedom as
           vibrations may cause significant error
 Vibrational temperatures:     47.61   240.94   285.65   326.63   478.24
          (Kelvin)            590.48   600.68   686.08   907.94  1000.61
                             1003.47  1042.32  1066.90  1208.48  1292.05
                             1397.83  1405.28  1418.44  1435.49  1456.34
                             1505.00  1584.68  1592.96  1701.65  1739.25
                             1890.70  1939.60  1965.59  2109.65  2113.32
                             2138.73  2173.90  2318.86  2340.64  4371.61
                             4488.19  4504.72  4547.85  4556.70  4571.46
                             4590.56  4612.41

 Zero-point correction=                           0.128651 (Hartree/Particle)
 Thermal correction to Energy=                    0.136322
 Thermal correction to Enthalpy=                  0.137266
 Thermal correction to Gibbs Free Energy=         0.095571
 Sum of electronic and zero-point Energies=           -669.719773
 Sum of electronic and thermal Energies=              -669.712102
 Sum of electronic and thermal Enthalpies=            -669.711158
 Sum of electronic and thermal Free Energies=         -669.752853

                     E (Thermal)             CV                S
                      KCal/Mol        Cal/Mol-Kelvin    Cal/Mol-Kelvin
 Total                   85.543             28.576             87.754
 Electronic               0.000              0.000              0.000
 Translational            0.889              2.981             40.360
 Rotational               0.889              2.981             28.669
 Vibrational             83.766             22.614             18.726
 Vibration     1          0.594              1.983              5.635
 Vibration     2          0.624              1.883              2.464
 Vibration     3          0.637              1.842              2.147
 Vibration     4          0.651              1.800              1.902
 Vibration     5          0.714              1.611              1.248
 Vibration     6          0.775              1.448              0.925
 Vibration     7          0.781              1.432              0.901
 Vibration     8          0.833              1.301              0.719

 Optimization completed.
    -- Stationary point found.
 Normal termination of Gaussian 09 at Tue Dec 20 16:13:00 2022.
