 Gaussian 09, Revision D.01,
 Gaussian 09:  ES64L-G09RevD.01 24-Apr-2013

 ----------------------------------------------------------------------
 # opt freq b3lyp/6-311+g(d,p) geom=connectivity pop=(hirshfeld,chelpg,
 mbs,npa)
 ----------------------------------------------------------------------

 -------------------
 Title Card Required
 -------------------
 Symbolic Z-matrix:
 Charge =  0 Multiplicity = 1

 SCF Done:  E(RB3LYP) =  -908.927101642     A.U. after   11 cycles
 SCF Done:  E(RB3LYP) =  -908.936125062     A.U. after   10 cycles
 SCF Done:  E(RB3LYP) =  -908.937083861     A.U. after    9 cycles
 SCF Done:  E(RB3LYP) =  -908.937168134     A.U. after    8 cycles
 SCF Done:  E(RB3LYP) =  -908.937182939     A.U. after    8 cycles
 SCF Done:  E(RB3LYP) =  -908.937184283     A.U. after    7 cycles
 Optimization completed.
    -- Stationary point found.
 Normal termination of Gaussian 09 at Mon Jan  9 17:28:16 2023.

 ----------------------------------------------------------------------
 #N Geom=AllCheck Guess=TCheck SCRF=Check GenChk RB3LYP/6-311+G(d,p) Fr
 eq
 ----------------------------------------------------------------------

 Structure from the checkpoint file:  "methylchlorosilanes2_Suginome.chk"
 -------------------
 Title Card Required
 -------------------
 Charge =  0 Multiplicity = 1

                         Standard orientation:
 ---------------------------------------------------------------------
 Center     Atomic      Atomic             Coordinates (Angstroms)
 Number     Number       Type             X           Y           Z
 ---------------------------------------------------------------------
      1         14           0       -0.092849    0.235044    0.000000
      2         17           0       -1.936761   -0.796872    0.000000
      3          6           0       -0.053597    1.290392    1.551379
      4          1           0       -0.116257    0.672482    2.450954
      5          1           0        0.873425    1.870557    1.602913
      6          1           0       -0.890023    1.993987    1.567403
      7          6           0        1.256576   -1.081764    0.000000
      8          1           0        1.100491   -1.724245   -0.873898
      9          1           0        1.100491   -1.724245    0.873898
     10          6           0       -0.053597    1.290392   -1.551379
     11          1           0       -0.890023    1.993987   -1.567404
     12          1           0        0.873425    1.870557   -1.602913
     13          1           0       -0.116257    0.672482   -2.450954
     14          6           0        2.695670   -0.531132    0.000000
     15          1           0        2.895905    0.083560    0.882449
     16          1           0        3.427424   -1.343806    0.000000
     17          1           0        2.895905    0.083560   -0.882449
 ---------------------------------------------------------------------

 SCF Done:  E(RB3LYP) =  -908.937184283     A.U. after    1 cycles

 The electronic state is 1-A.
 Alpha  occ. eigenvalues -- -101.52369 -66.12302 -10.17452 -10.16574 -10.15980
 Alpha  occ. eigenvalues --  -10.15980  -9.43903  -7.20085  -7.19510  -7.19508
 Alpha  occ. eigenvalues --   -5.29343  -3.65455  -3.65011  -3.64995  -0.81096
 Alpha  occ. eigenvalues --   -0.76566  -0.71463  -0.69536  -0.62871  -0.48827
 Alpha  occ. eigenvalues --   -0.45523  -0.44111  -0.42495  -0.41161  -0.40879
 Alpha  occ. eigenvalues --   -0.40398  -0.38599  -0.36415  -0.35325  -0.33679
 Alpha  occ. eigenvalues --   -0.32735  -0.29850  -0.29077
 Alpha virt. eigenvalues --   -0.01382   0.01106   0.01347   0.01777   0.03195
 Alpha virt. eigenvalues --    0.04646   0.04879   0.05605   0.06048   0.06160
 Alpha virt. eigenvalues --    0.07187   0.07919   0.08548   0.08917   0.09400

 Mulliken charges:
               1
     1  Si   0.726527
     2  Cl  -0.179279
     3  C   -0.705028
     4  H    0.174776
     5  H    0.159090
     6  H    0.173812
     7  C   -0.382418
     8  H    0.172924
     9  H    0.172924
    10  C   -0.705028
    11  H    0.173812
    12  H    0.159090
    13  H    0.174776
    14  C   -0.544281
    15  H    0.140056
    16  H    0.148190
    17  H    0.140056
 Sum of Mulliken charges =   0.00000

 Dipole moment (field-independent basis, Debye):
    X=              2.3544    Y=              1.1653    Z=              0.0000  Tot=              2.6270
 Quadrupole moment (field-independent basis, Debye-Ang):
   XX=            -57.8220   YY=            -54.0471   ZZ=            -53.4991
   XY=             -2.2993   XZ=              0.0000   YZ=              0.0000

  Exact polarizability:  93.040   1.850  81.768  -0.002   0.001  80.586
 Approx polarizability: 122.624   6.538 112.588   0.000   0.000 109.453

 ESP charges:
               1
     1  Si   0.667990
     2  Cl  -0.332278
     3  C   -0.381873
     4  H    0.080450
     5  H    0.082038
     6  H    0.088277
     7  C   -0.074649
     8  H    0.003519
     9  H    0.003519
    10  C   -0.381873
    11  H    0.088277
    12  H    0.082038
    13  H    0.080450
    14  C   -0.034288
    15  H    0.003253
    16  H    0.021898
    17  H    0.003253
 Sum of ESP charges =   0.00000

 Summary of Natural Population Analysis:

                                       Natural Population
                Natural  -----------------------------------------------
    Atom  No    Charge         Core      Valence    Rydberg      Total
 -----------------------------------------------------------------------
     Si    1    1.56749      9.99818     2.38436    0.04997    12.43251
     Cl    2   -0.39619      9.99970     7.38607    0.01042    17.39619
      C    3   -1.09202      1.99930     5.07989    0.01283     7.09202
      H    4    0.23738      0.00000     0.76164    0.00097     0.76262
      H    5    0.23045      0.00000     0.76849    0.00106     0.76955
      H    6    0.23815      0.00000     0.76087    0.00098     0.76185
      C    7   -0.87224      1.99923     4.85367    0.01934     6.87224
      H    8    0.22757      0.00000     0.77097    0.00146     0.77243
      H    9    0.22757      0.00000     0.77097    0.00146     0.77243
      C   10   -1.09202      1.99930     5.07989    0.01283     7.09202
      H   11    0.23815      0.00000     0.76087    0.00098     0.76185
      H   12    0.23045      0.00000     0.76849    0.00106     0.76955
      H   13    0.23738      0.00000     0.76164    0.00097     0.76262
      C   14   -0.57718      1.99938     4.56703    0.01076     6.57718
      H   15    0.19540      0.00000     0.80335    0.00126     0.80460
      H   16    0.20425      0.00000     0.79446    0.00129     0.79575
      H   17    0.19540      0.00000     0.80335    0.00126     0.80460
 =======================================================================
   * Total *    0.00000     27.99510    37.87599    0.12891    66.00000

                      1                      2                      3
                      A                      A                      A
 Frequencies --     67.5792               127.3070               148.1113
 Red. masses --      2.0641                 3.6009                 1.0205
 Frc consts  --      0.0056                 0.0344                 0.0132
 IR Inten    --      0.2353                 1.2315                 0.0112

                      4                      5                      6
                      A                      A                      A
 Frequencies --    160.1026               168.0496               194.5199
 Red. masses --      1.0283                 1.8739                 2.6956
 Frc consts  --      0.0155                 0.0312                 0.0601
 IR Inten    --      0.0060                 0.0103                 0.7858

                      7                      8                      9
                      A                      A                      A
 Frequencies --    195.1742               226.5102               269.4122
 Red. masses --      1.9254                 2.8808                 1.6798
 Frc consts  --      0.0432                 0.0871                 0.0718
 IR Inten    --      3.1375                 6.1869                 3.6172

                     10                     11                     12
                      A                      A                      A
 Frequencies --    301.6875               477.5179               605.7282
 Red. masses --      3.7471                 6.7480                 3.7700
 Frc consts  --      0.2009                 0.9066                 0.8150
 IR Inten    --      0.1061                71.8607                29.4551

                     13                     14                     15
                      A                      A                      A
 Frequencies --    672.5739               699.1501               709.8449
 Red. masses --      1.3092                 1.7235                 3.2318
 Frc consts  --      0.3489                 0.4964                 0.9595
 IR Inten    --      0.0394                 7.6803                34.3874

                     16                     17                     18
                      A                      A                      A
 Frequencies --    773.5387               806.2037               839.8350
 Red. masses --      1.3525                 1.7017                 1.4851
 Frc consts  --      0.4768                 0.6517                 0.6171
 IR Inten    --      4.6230                76.2242               104.3772

                     19                     20                     21
                      A                      A                      A
 Frequencies --    876.8997               982.1635               993.7042
 Red. masses --      1.5406                 1.7412                 1.2316
 Frc consts  --      0.6980                 0.9896                 0.7165
 IR Inten    --     81.5322                 0.7665                17.2146

                     22                     23                     24
                      A                      A                      A
 Frequencies --   1022.9946              1263.1719              1277.5690
 Red. masses --      1.9293                 1.2316                 1.4900
 Frc consts  --      1.1896                 1.1579                 1.4329
 IR Inten    --     29.7505                 1.5139                 4.8844

                     25                     26                     27
                      A                      A                      A
 Frequencies --   1298.5816              1305.4036              1416.0789
 Red. masses --      1.2515                 1.2297                 1.1927
 Frc consts  --      1.2434                 1.2347                 1.4092
 IR Inten    --     42.3025                19.9724                 1.0419

                     28                     29                     30
                      A                      A                      A
 Frequencies --   1452.0323              1456.3250              1456.6784
 Red. masses --      1.0507                 1.0719                 1.0518
 Frc consts  --      1.3052                 1.3394                 1.3150
 IR Inten    --      0.6144                 1.9297                 1.5420

                     31                     32                     33
                      A                      A                      A
 Frequencies --   1462.3825              1470.1103              1503.2047
 Red. masses --      1.0491                 1.0527                 1.0461
 Frc consts  --      1.3218                 1.3405                 1.3927
 IR Inten    --      9.7910                 8.1035                 5.5373

                     34                     35                     36
                      A                      A                      A
 Frequencies --   1511.2558              3021.5512              3022.6394
 Red. masses --      1.0376                 1.0455                 1.0484
 Frc consts  --      1.3963                 5.6237                 5.6436
 IR Inten    --      7.9608                 8.9420                32.6814

                     37                     38                     39
                      A                      A                      A
 Frequencies --   3024.8014              3026.6195              3054.8967
 Red. masses --      1.0356                 1.0353                 1.1013
 Frc consts  --      5.5824                 5.5878                 6.0555
 IR Inten    --      3.3508                 8.9451                 1.3353

                     40                     41                     42
                      A                      A                      A
 Frequencies --   3079.6202              3085.4577              3094.0246
 Red. masses --      1.1014                 1.1017                 1.0990
 Frc consts  --      6.1545                 6.1797                 6.1989
 IR Inten    --     32.0129                40.1879                 0.1947

                     43                     44                     45
                      A                      A                      A
 Frequencies --   3095.7212              3106.1691              3106.9283
 Red. masses --      1.0989                 1.1009                 1.1007
 Frc consts  --      6.2049                 6.2580                 6.2603
 IR Inten    --     17.9676                 4.2734                11.3612

 - Thermochemistry -
 -------------------
 Temperature   298.150 Kelvin.  Pressure   1.00000 Atm.
 Atom     1 has atomic number 14 and mass  27.97693

 Molecular mass:   122.03186 amu.
 Principal axes and moments of inertia in atomic units:
                           1         2         3
     Eigenvalues --   668.945541264.956131340.31380
           X            0.99846  -0.05542   0.00000
           Y            0.05542   0.99846   0.00000
           Z            0.00000   0.00000   1.00000
 This molecule is an asymmetric top.
 Rotational symmetry number  1.
 Warning -- assumption of classical behavior for rotation
           may cause significant error
 Rotational temperatures (Kelvin)      0.12948     0.06847     0.06462
 Rotational constants (GHZ):           2.69789     1.42672     1.34651
 Zero-point vibrational energy     370303.0 (Joules/Mol)
                                   88.50455 (Kcal/Mol)
 Warning -- explicit consideration of  12 degrees of freedom as
           vibrations may cause significant error
 Vibrational temperatures:     97.23   183.17   213.10   230.35   241.79
          (Kelvin)            279.87   280.81   325.90   387.62   434.06
                              687.04   871.51   967.68  1005.92  1021.31
                             1112.95  1159.95  1208.33  1261.66  1413.11
                             1429.72  1471.86  1817.42  1838.13  1868.37
                             1878.18  2037.42  2089.15  2095.32  2095.83
                             2104.04  2115.16  2162.77  2174.36  4347.33
                             4348.90  4352.01  4354.63  4395.31  4430.88
                             4439.28  4451.61  4454.05  4469.08  4470.17

 Zero-point correction=                           0.141041 (Hartree/Particle)
 Thermal correction to Energy=                    0.151014
 Thermal correction to Enthalpy=                  0.151959
 Thermal correction to Gibbs Free Energy=         0.106162
 Sum of electronic and zero-point Energies=           -908.796143
 Sum of electronic and thermal Energies=              -908.786170
 Sum of electronic and thermal Enthalpies=            -908.785226
 Sum of electronic and thermal Free Energies=         -908.831022

                     E (Thermal)             CV                S
                      KCal/Mol        Cal/Mol-Kelvin    Cal/Mol-Kelvin
 Total                   94.763             34.163             96.386
 Electronic               0.000              0.000              0.000
 Translational            0.889              2.981             40.312
 Rotational               0.889              2.981             28.519
 Vibrational             92.986             28.201             27.556
 Vibration     1          0.598              1.970              4.223
 Vibration     2          0.611              1.926              2.986
 Vibration     3          0.617              1.905              2.696
 Vibration     4          0.622              1.891              2.549
 Vibration     5          0.625              1.882              2.457
 Vibration     6          0.635              1.848              2.184
 Vibration     7          0.636              1.847              2.178
 Vibration     8          0.650              1.801              1.906
 Vibration     9          0.674              1.729              1.600
 Vibration    10          0.694              1.671              1.408
 Vibration    11          0.834              1.300              0.717
 Vibration    12          0.964              1.020              0.440

 Optimization completed.
    -- Stationary point found.
 Normal termination of Gaussian 09 at Mon Jan  9 17:29:06 2023.
