 Gaussian 09, Revision D.01,
 Gaussian 09:  ES64L-G09RevD.01 24-Apr-2013

 ---------------------------------------------------------------------
 # b3lyp/6-311+g(d,p) geom=connectivity pop=(hirshfeld,chelpg,mbs,npa)
 ---------------------------------------------------------------------

 ---------
 Table13_4
 ---------
 Symbolic Z-matrix:
 Charge =  0 Multiplicity = 1

                         Standard orientation:
 ---------------------------------------------------------------------
 Center     Atomic      Atomic             Coordinates (Angstroms)
 Number     Number       Type             X           Y           Z
 ---------------------------------------------------------------------
      1          6           0        1.742343   -0.009481   -0.002339
      2          6           0        1.912424    1.371769    0.011045
      3          6           0        0.787116    2.192787    0.002639
      4          6           0       -0.491208    1.642471   -0.018087
      5          6           0       -0.639252    0.255717   -0.032854
      6          6           0        0.475578   -0.581978   -0.023029
      7          1           0        2.908890    1.794372    0.024551
      8          1           0        0.911646    3.269031    0.009523
      9          1           0       -1.364067    2.282328   -0.031080
     10          1           0        0.360602   -1.657193   -0.039548
     11          6           0       -2.018441   -0.350167   -0.003639
     12          9           0       -2.050460   -1.576663   -0.568456
     13          9           0       -2.923079    0.414645   -0.653894
     14          9           0       -2.474640   -0.494858    1.266151
     15         17           0        3.153246   -1.053138    0.002349
 ---------------------------------------------------------------------

 SCF Done:  E(RB3LYP) =  -1029.08184390     A.U. after   16 cycles

 The electronic state is 1-A.
 Alpha  occ. eigenvalues -- -101.57107 -24.72499 -24.72458 -24.71997 -10.44337
 Alpha  occ. eigenvalues --  -10.26456 -10.22945 -10.21814 -10.21491 -10.21365
 Alpha  occ. eigenvalues --  -10.21290  -9.48564  -7.25032  -7.24045  -7.24007
 Alpha  occ. eigenvalues --   -1.32996  -1.24378  -1.23850  -0.92209  -0.87094
 Alpha  occ. eigenvalues --   -0.81046  -0.76996  -0.72611  -0.65694  -0.64409
 Alpha  occ. eigenvalues --   -0.60779  -0.60497  -0.58319  -0.53486  -0.50678
 Alpha  occ. eigenvalues --   -0.48935  -0.48325  -0.47947  -0.46427  -0.45004
 Alpha  occ. eigenvalues --   -0.44155  -0.43315  -0.42621  -0.42208  -0.39466
 Alpha  occ. eigenvalues --   -0.39082  -0.35921  -0.33431  -0.29758  -0.27645
 Alpha virt. eigenvalues --   -0.06076  -0.04919  -0.00982   0.00247   0.01744
 Alpha virt. eigenvalues --    0.01962   0.04025   0.04326   0.04447   0.04659
 Alpha virt. eigenvalues --    0.06284   0.07393   0.07660   0.07742   0.09374

 Mulliken charges:
               1
     1  C    0.750826
     2  C   -0.528070
     3  C   -0.278615
     4  C    0.020863
     5  C   -0.748334
     6  C   -0.314142
     7  H    0.155608
     8  H    0.142999
     9  H    0.148658
    10  H    0.165327
    11  C    0.392505
    12  F   -0.120565
    13  F   -0.114399
    14  F   -0.069503
    15  Cl   0.396841
 Sum of Mulliken charges =   0.00000

 Dipole moment (field-independent basis, Debye):
    X=              1.4461    Y=              2.2110    Z=             -0.0733  Tot=              2.6430
 Quadrupole moment (field-independent basis, Debye-Ang):
   XX=            -74.1770   YY=            -62.3700   ZZ=            -72.1386
   XY=              1.2115   XZ=              0.1905   YZ=              0.0762

 ESP charges:
               1
     1  C    0.089192
     2  C   -0.047438
     3  C   -0.097012
     4  C   -0.079107
     5  C   -0.104744
     6  C   -0.053194
     7  H    0.096215
     8  H    0.109473
     9  H    0.113331
    10  H    0.107747
    11  C    0.729154
    12  F   -0.239532
    13  F   -0.246544
    14  F   -0.252532
    15  Cl  -0.125009
 Sum of ESP charges =   0.00000

 Summary of Natural Population Analysis:

                                       Natural Population
                Natural  -----------------------------------------------
    Atom  No    Charge         Core      Valence    Rydberg      Total
 -----------------------------------------------------------------------
      C    1   -0.03448      1.99859     4.01239    0.02350     6.03448
      C    2   -0.20793      1.99897     4.19003    0.01893     6.20793
      C    3   -0.18015      1.99916     4.16365    0.01734     6.18015
      C    4   -0.18170      1.99908     4.16530    0.01732     6.18170
      C    5   -0.12971      1.99889     4.11248    0.01833     6.12971
      C    6   -0.20158      1.99889     4.18415    0.01855     6.20158
      H    7    0.22781      0.00000     0.77058    0.00161     0.77219
      H    8    0.21758      0.00000     0.78099    0.00143     0.78242
      H    9    0.22844      0.00000     0.76995    0.00161     0.77156
      H   10    0.24205      0.00000     0.75597    0.00198     0.75795
      C   11    1.06866      1.99911     2.87190    0.06033     4.93134
      F   12   -0.35514      1.99992     7.34869    0.00653     9.35514
      F   13   -0.35524      1.99992     7.34883    0.00650     9.35524
      F   14   -0.35517      1.99992     7.34882    0.00643     9.35517
     Cl   15    0.01657      9.99961     6.96402    0.01980    16.98343
 =======================================================================
   * Total *    0.00000     29.99206    59.78775    0.22019    90.00000

 Normal termination of Gaussian 09 at Fri Jul 23 17:29:21 2021.
