 Gaussian 09, Revision D.01,
 Gaussian 09:  ES64L-G09RevD.01 24-Apr-2013

 ----------------------------------------------------------------------
 # opt freq=noraman b3lyp/6-311+g(d,p) geom=connectivity pop=(hirshfeld
 ,chelpg,npa,mbs)
 ----------------------------------------------------------------------

 ---
 tit
 ---
 Symbolic Z-matrix:
 Charge =  0 Multiplicity = 1

 SCF Done:  E(RB3LYP) =  -460.248767368     A.U. after   14 cycles
 SCF Done:  E(RB3LYP) =  -460.256621575     A.U. after   13 cycles
 SCF Done:  E(RB3LYP) =  -460.258053092     A.U. after   11 cycles
 SCF Done:  E(RB3LYP) =  -460.258099864     A.U. after   11 cycles
 SCF Done:  E(RB3LYP) =  -460.258107143     A.U. after   10 cycles
 SCF Done:  E(RB3LYP) =  -460.258096606     A.U. after   11 cycles
 SCF Done:  E(RB3LYP) =  -460.258108237     A.U. after   10 cycles
 Optimization completed.
    -- Stationary point found.
 Normal termination of Gaussian 09 at Fri Feb 17 13:19:05 2023.

 ----------------------------------------------------------------------
 #N Geom=AllCheck Guess=TCheck SCRF=Check GenChk RB3LYP/6-311+G(d,p) Fr
 eq
 ----------------------------------------------------------------------

 Structure from the checkpoint file:  "Table4_1_fixed.chk"
 ---
 tit
 ---
 Charge =  0 Multiplicity = 1

                         Standard orientation:
 ---------------------------------------------------------------------
 Center     Atomic      Atomic             Coordinates (Angstroms)
 Number     Number       Type             X           Y           Z
 ---------------------------------------------------------------------
      1          6           0        2.479228    1.014926    0.000027
      2          6           0        2.993194   -0.282209    0.000014
      3          6           0        2.128042   -1.376123   -0.000015
      4          6           0        0.750364   -1.177292   -0.000027
      5          6           0        0.231924    0.123058   -0.000011
      6          6           0        1.103490    1.218138    0.000014
      7          1           0        3.150973    1.865700    0.000043
      8          1           0        4.066001   -0.440108    0.000024
      9          1           0        2.527036   -2.384054   -0.000029
     10          1           0        0.073468   -2.021300   -0.000045
     11          1           0        0.684936    2.216975    0.000029
     12          6           0       -1.233514    0.396932   -0.000027
     13          8           0       -1.725322    1.502690   -0.000041
     14          8           0       -1.972108   -0.735100    0.000020
     15          6           0       -3.398888   -0.552973    0.000032
     16          1           0       -3.713415   -0.004182   -0.888716
     17          1           0       -3.819203   -1.556364    0.000064
     18          1           0       -3.713394   -0.004135    0.888760
 ---------------------------------------------------------------------

 SCF Done:  E(RB3LYP) =  -460.258108237     A.U. after    1 cycles

 The electronic state is 1-A.
 Alpha  occ. eigenvalues --  -19.17415 -19.11443 -10.30710 -10.22983 -10.19867
 Alpha  occ. eigenvalues --  -10.19209 -10.19108 -10.18909 -10.18848 -10.18791
 Alpha  occ. eigenvalues --   -1.11443  -1.02607  -0.87475  -0.78452  -0.76310
 Alpha  occ. eigenvalues --   -0.73085  -0.64058  -0.62052  -0.57603  -0.54815
 Alpha  occ. eigenvalues --   -0.50008  -0.49130  -0.48630  -0.46185  -0.45497
 Alpha  occ. eigenvalues --   -0.43811  -0.42764  -0.41574  -0.37573  -0.37568
 Alpha  occ. eigenvalues --   -0.36893  -0.35658  -0.31580  -0.28849  -0.27149
 Alpha  occ. eigenvalues --   -0.27004
 Alpha virt. eigenvalues --   -0.06020  -0.02551  -0.00010   0.00959   0.02278
 Alpha virt. eigenvalues --    0.02813   0.03724   0.04370   0.04450   0.04504
 Alpha virt. eigenvalues --    0.06086   0.06127   0.06425   0.07888   0.08696

 Mulliken charges:
               1
     1  C   -0.253897
     2  C   -0.122451
     3  C   -0.252747
     4  C   -0.206285
     5  C    0.688803
     6  C   -0.212659
     7  H    0.131665
     8  H    0.131148
     9  H    0.129468
    10  H    0.144360
    11  H    0.149249
    12  C   -0.195482
    13  O   -0.293062
    14  O   -0.146086
    15  C   -0.162633
    16  H    0.159296
    17  H    0.152017
    18  H    0.159296
 Sum of Mulliken charges =   0.00000

 Dipole moment (field-independent basis, Debye):
    X=              0.6412    Y=             -1.8554    Z=              0.0001  Tot=              1.9631
 Quadrupole moment (field-independent basis, Debye-Ang):
   XX=            -47.0744   YY=            -58.6539   ZZ=            -61.1401
   XY=              4.9856   XZ=             -0.0001   YZ=              0.0003

  Exact polarizability: 135.534  -0.990 104.009   0.000   0.000  58.441
 Approx polarizability: 187.897  -5.708 178.746   0.001   0.001  86.843

 ESP charges:
               1
     1  C   -0.073795
     2  C   -0.079482
     3  C   -0.089599
     4  C   -0.033901
     5  C   -0.122071
     6  C   -0.039273
     7  H    0.083485
     8  H    0.089223
     9  H    0.092026
    10  H    0.058323
    11  H    0.082084
    12  C    0.694868
    13  O   -0.534140
    14  O   -0.343798
    15  C   -0.004152
    16  H    0.072328
    17  H    0.075544
    18  H    0.072329
 Sum of ESP charges =   0.00000

 Summary of Natural Population Analysis:

                                       Natural Population
                Natural  -----------------------------------------------
    Atom  No    Charge         Core      Valence    Rydberg      Total
 -----------------------------------------------------------------------
      C    1   -0.20673      1.99916     4.18982    0.01775     6.20673
      C    2   -0.18015      1.99916     4.16298    0.01800     6.18015
      C    3   -0.20764      1.99916     4.19072    0.01776     6.20764
      C    4   -0.16271      1.99909     4.14673    0.01689     6.16271
      C    5   -0.15923      1.99891     4.14164    0.01868     6.15923
      C    6   -0.15581      1.99909     4.13913    0.01758     6.15581
      H    7    0.20988      0.00000     0.78869    0.00143     0.79012
      H    8    0.20780      0.00000     0.79085    0.00135     0.79220
      H    9    0.20911      0.00000     0.78945    0.00145     0.79089
      H   10    0.22564      0.00000     0.77279    0.00157     0.77436
      H   11    0.23075      0.00000     0.76761    0.00163     0.76925
      C   12    0.79732      1.99928     3.15614    0.04726     5.20268
      O   13   -0.60067      1.99975     6.58954    0.01138     8.60067
      O   14   -0.55496      1.99973     6.54076    0.01447     8.55496
      C   15   -0.21308      1.99925     4.19788    0.01596     6.21308
      H   16    0.18727      0.00000     0.81090    0.00183     0.81273
      H   17    0.18595      0.00000     0.81290    0.00115     0.81405
      H   18    0.18727      0.00000     0.81090    0.00183     0.81273
 =======================================================================
   * Total *    0.00000     19.99258    51.79944    0.20798    72.00000

                      1                      2                      3
                      A                      A                      A
 Frequencies --     55.0175               105.5816               138.8703
 Red. masses --      4.7902                 2.4452                 1.2759
 Frc consts  --      0.0085                 0.0161                 0.0145
 IR Inten    --      1.7704                 2.0271                 0.0304

                      4                      5                      6
                      A                      A                      A
 Frequencies --    164.2916               206.2903               324.9402
 Red. masses --      3.8924                 4.2549                 4.5629
 Frc consts  --      0.0619                 0.1067                 0.2839
 IR Inten    --      2.1407                 2.6054                16.8614

                      7                      8                      9
                      A                      A                      A
 Frequencies --    357.9637               414.5964               452.6331
 Red. masses --      5.8907                 2.8858                 3.6406
 Frc consts  --      0.4447                 0.2923                 0.4395
 IR Inten    --      0.2165                 0.0037                 0.3146

                     10                     11                     12
                      A                      A                      A
 Frequencies --    480.8813               631.8247               688.9209
 Red. masses --      7.1438                 6.4163                 6.3028
 Frc consts  --      0.9733                 1.5091                 1.7625
 IR Inten    --      4.2196                 0.4642                 5.9738

                     13                     14                     15
                      A                      A                      A
 Frequencies --    696.8893               724.7371               823.2028
 Red. masses --      2.9453                 1.6196                 3.1747
 Frc consts  --      0.8428                 0.5012                 1.2675
 IR Inten    --      7.2248                98.5922                 1.5085

                     16                     17                     18
                      A                      A                      A
 Frequencies --    832.5981               865.8803               961.3615
 Red. masses --      5.2000                 1.2465                 1.4330
 Frc consts  --      2.1239                 0.5506                 0.7803
 IR Inten    --      6.9387                 0.0338                 1.6610

                     19                     20                     21
                      A                      A                      A
 Frequencies --    984.1503              1002.3287              1015.7033
 Red. masses --      7.3600                 1.3708                 1.2980
 Frc consts  --      4.2000                 0.8114                 0.7890
 IR Inten    --      9.7852                 0.0381                 0.0690

                     22                     23                     24
                      A                      A                      A
 Frequencies --   1017.9376              1047.1808              1099.2465
 Red. masses --      6.2967                 2.2181                 1.6126
 Frc consts  --      3.8442                 1.4331                 1.1481
 IR Inten    --      0.7025                19.4467                33.1832

                     25                     26                     27
                      A                      A                      A
 Frequencies --   1131.0003              1171.5448              1183.6650
 Red. masses --      3.5821                 1.2798                 1.1165
 Frc consts  --      2.6997                 1.0349                 0.9216
 IR Inten    --    114.1759                 0.8115                 0.4507

                     28                     29                     30
                      A                      A                      A
 Frequencies --   1197.0441              1211.8105              1286.6163
 Red. masses --      1.1565                 1.5713                 4.9023
 Frc consts  --      0.9764                 1.3595                 4.7813
 IR Inten    --     40.8485                41.6722               447.6821

                     31                     32                     33
                      A                      A                      A
 Frequencies --   1338.3870              1349.1014              1470.4610
 Red. masses --      2.3594                 2.2161                 1.1971
 Frc consts  --      2.4901                 2.3765                 1.5250
 IR Inten    --     11.2695                 3.8028                17.9601

                     34                     35                     36
                      A                      A                      A
 Frequencies --   1479.7171              1483.2993              1498.0821
 Red. masses --      2.1888                 1.0445                 1.0483
 Frc consts  --      2.8237                 1.3540                 1.3862
 IR Inten    --     16.5269                 9.8767                10.3570

                     37                     38                     39
                      A                      A                      A
 Frequencies --   1521.5384              1621.4950              1641.5168
 Red. masses --      2.2252                 5.7429                 5.5653
 Frc consts  --      3.0352                 8.8963                 8.8354
 IR Inten    --      1.0610                 5.2391                13.8641

                     40                     41                     42
                      A                      A                      A
 Frequencies --   1766.7053              3050.1545              3122.6324
 Red. masses --     11.6522                 1.0295                 1.1070
 Frc consts  --     21.4283                 5.6434                 6.3596
 IR Inten    --    291.9908                37.7094                18.8616

                     43                     44                     45
                      A                      A                      A
 Frequencies --   3155.1717              3165.9337              3177.6144
 Red. masses --      1.1063                 1.0860                 1.0898
 Frc consts  --      6.4887                 6.4131                 6.4831
 IR Inten    --     14.5211                 0.2389                11.7891

                     46                     47                     48
                      A                      A                      A
 Frequencies --   3187.8912              3201.7685              3210.2530
 Red. masses --      1.0946                 1.0940                 1.0933
 Frc consts  --      6.5540                 6.6075                 6.6387
 IR Inten    --     15.2798                 5.2841                 2.8087

 - Thermochemistry -
 -------------------
 Temperature   298.150 Kelvin.  Pressure   1.00000 Atm.
 Atom     1 has atomic number  6 and mass  12.00000

 Molecular mass:   136.05243 amu.
 Principal axes and moments of inertia in atomic units:
                           1         2         3
     Eigenvalues --   512.148612150.004762650.78258
           X            0.99993   0.01172   0.00000
           Y           -0.01172   0.99993   0.00000
           Z            0.00000   0.00000   1.00000
 This molecule is an asymmetric top.
 Rotational symmetry number  1.
 Warning -- assumption of classical behavior for rotation
           may cause significant error
 Rotational temperatures (Kelvin)      0.16912     0.04029     0.03267
 Rotational constants (GHZ):           3.52386     0.83941     0.68083
 Zero-point vibrational energy     375127.6 (Joules/Mol)
                                   89.65764 (Kcal/Mol)
 Warning -- explicit consideration of  10 degrees of freedom as
           vibrations may cause significant error
 Vibrational temperatures:     79.16   151.91   199.80   236.38   296.81
          (Kelvin)            467.52   515.03   596.51   651.24   691.88
                              909.05   991.20  1002.67  1042.73  1184.40
                             1197.92  1245.81  1383.18  1415.97  1442.13
                             1461.37  1464.58  1506.66  1581.57  1627.26
                             1685.59  1703.03  1722.28  1743.52  1851.15
                             1925.64  1941.05  2115.66  2128.98  2134.13
                             2155.40  2189.15  2332.97  2361.77  2541.89
                             4388.49  4492.77  4539.58  4555.07  4571.87
                             4586.66  4606.62  4618.83

 Zero-point correction=                           0.142879 (Hartree/Particle)
 Thermal correction to Energy=                    0.151709
 Thermal correction to Enthalpy=                  0.152653
 Thermal correction to Gibbs Free Energy=         0.108408
 Sum of electronic and zero-point Energies=           -460.115230
 Sum of electronic and thermal Energies=              -460.106399
 Sum of electronic and thermal Enthalpies=            -460.105455
 Sum of electronic and thermal Free Energies=         -460.149700

                     E (Thermal)             CV                S
                      KCal/Mol        Cal/Mol-Kelvin    Cal/Mol-Kelvin
 Total                   95.199             32.517             93.121
 Electronic               0.000              0.000              0.000
 Translational            0.889              2.981             40.636
 Rotational               0.889              2.981             29.458
 Vibrational             93.421             26.555             23.028
 Vibration     1          0.596              1.976              4.628
 Vibration     2          0.605              1.945              3.349
 Vibration     3          0.614              1.914              2.819
 Vibration     4          0.623              1.886              2.500
 Vibration     5          0.641              1.831              2.076
 Vibration     6          0.709              1.626              1.285
 Vibration     7          0.733              1.559              1.131
 Vibration     8          0.778              1.439              0.911
 Vibration     9          0.811              1.355              0.788
 Vibration    10          0.837              1.292              0.708

 Optimization completed.
    -- Stationary point found.
 Normal termination of Gaussian 09 at Fri Feb 17 13:21:13 2023.
