 Gaussian 09, Revision D.01,
 Gaussian 09:  ES64L-G09RevD.01 24-Apr-2013

 ----------------------------------------------------------------------
 # opt freq b3lyp/6-311+g(d,p) geom=connectivity pop=(hirshfeld,chelpg,
 mbs,npa)
 ----------------------------------------------------------------------

 -------------------
 Title Card Required
 -------------------
 Symbolic Z-matrix:
 Charge =  0 Multiplicity = 1

 SCF Done:  E(RB3LYP) =  -731.259346570     A.U. after   14 cycles
 SCF Done:  E(RB3LYP) =  -731.261980029     A.U. after   12 cycles
 SCF Done:  E(RB3LYP) =  -731.262124448     A.U. after   11 cycles
 SCF Done:  E(RB3LYP) =  -731.262131503     A.U. after   10 cycles
 Optimization completed.
    -- Stationary point found.
 Normal termination of Gaussian 09 at Tue Nov  2 16:09:19 2021.

 ----------------------------------------------------------------------
 #N Geom=AllCheck Guess=TCheck SCRF=Check GenChk RB3LYP/6-311+G(d,p) Fr
 eq
 ----------------------------------------------------------------------

 Structure from the checkpoint file:  "Scheme2_3.chk"
 -------------------
 Title Card Required
 -------------------
 Charge =  0 Multiplicity = 1

                         Standard orientation:
 ---------------------------------------------------------------------
 Center     Atomic      Atomic             Coordinates (Angstroms)
 Number     Number       Type             X           Y           Z
 ---------------------------------------------------------------------
      1          6           0        0.661091    1.880497    0.002361
      2          6           0        1.732814    0.991124   -0.008486
      3          6           0        1.516647   -0.390974   -0.011648
      4          6           0        0.199579   -0.862082   -0.009652
      5          6           0       -0.860929    0.037509    0.001223
      6          6           0       -0.650971    1.411991    0.007757
      7          1           0        0.843985    2.949272    0.002867
      8          1           0        2.748085    1.373346   -0.016902
      9          1           0       -0.001027   -1.926936   -0.018552
     10          1           0       -1.491069    2.094418    0.012681
     11         17           0       -2.509966   -0.582427    0.000560
     12          6           0        2.674375   -1.359798    0.009454
     13          1           0        3.551250   -0.940640   -0.489214
     14          1           0        2.418454   -2.299548   -0.485141
     15          1           0        2.964111   -1.598258    1.038676
 ---------------------------------------------------------------------

 SCF Done:  E(RB3LYP) =  -731.262131503     A.U. after    1 cycles

 The electronic state is 1-A.
 Alpha  occ. eigenvalues -- -101.55343 -10.24165 -10.19978 -10.19004 -10.18878
 Alpha  occ. eigenvalues --  -10.18824 -10.18356 -10.17874  -9.46802  -7.23255
 Alpha  occ. eigenvalues --   -7.22289  -7.22256  -0.89711  -0.84592  -0.78534
 Alpha  occ. eigenvalues --   -0.74423  -0.70236  -0.61926  -0.59473  -0.52486
 Alpha  occ. eigenvalues --   -0.48759  -0.46649  -0.43712  -0.43503  -0.42768
 Alpha  occ. eigenvalues --   -0.40260  -0.39305  -0.36682  -0.36301  -0.33411
 Alpha  occ. eigenvalues --   -0.31692  -0.26488  -0.25203
 Alpha virt. eigenvalues --   -0.02861  -0.02596  -0.00113   0.00927   0.01824
 Alpha virt. eigenvalues --    0.02203   0.03924   0.04078   0.04907   0.05322
 Alpha virt. eigenvalues --    0.07092   0.07205   0.07771   0.08081   0.09459

 Mulliken charges:
               1
     1  C   -0.230352
     2  C   -0.403473
     3  C    0.508964
     4  C   -0.746800
     5  C    0.870231
     6  C   -0.666422
     7  H    0.132148
     8  H    0.121405
     9  H    0.140059
    10  H    0.147205
    11  Cl   0.345953
    12  C   -0.677159
    13  H    0.143006
    14  H    0.143342
    15  H    0.171894
 Sum of Mulliken charges =   0.00000

 Dipole moment (field-independent basis, Debye):
    X=              2.1372    Y=              0.3557    Z=              0.0369  Tot=              2.1669
 Quadrupole moment (field-independent basis, Debye-Ang):
   XX=            -53.5148   YY=            -49.6499   ZZ=            -58.0874
   XY=             -1.7433   XZ=              0.0662   YZ=             -0.0126

  Exact polarizability: 122.279   0.897 100.072   0.263  -0.201  55.914
 Approx polarizability: 181.152   5.170 159.725   0.298  -0.237  83.865

 ESP charges:
               1
     1  C   -0.065888
     2  C   -0.216298
     3  C    0.195871
     4  C   -0.213161
     5  C    0.153873
     6  C   -0.130840
     7  H    0.098716
     8  H    0.120493
     9  H    0.124108
    10  H    0.106397
    11  Cl  -0.160188
    12  C   -0.199989
    13  H    0.058464
    14  H    0.064335
    15  H    0.064106
 Sum of ESP charges =   0.00000

 Summary of Natural Population Analysis:

                                       Natural Population
                Natural  -----------------------------------------------
    Atom  No    Charge         Core      Valence    Rydberg      Total
 -----------------------------------------------------------------------
      C    1   -0.17974      1.99916     4.16265    0.01793     6.17974
      C    2   -0.21100      1.99905     4.19517    0.01678     6.21100
      C    3   -0.01420      1.99905     3.99948    0.01568     6.01420
      C    4   -0.23181      1.99886     4.21502    0.01793     6.23181
      C    5   -0.02641      1.99857     4.00449    0.02334     6.02641
      C    6   -0.23747      1.99896     4.21941    0.01911     6.23747
      H    7    0.20992      0.00000     0.78849    0.00159     0.79008
      H    8    0.20635      0.00000     0.79206    0.00159     0.79365
      H    9    0.21998      0.00000     0.77814    0.00188     0.78002
      H   10    0.22292      0.00000     0.77542    0.00165     0.77708
     Cl   11   -0.00502      9.99962     6.98568    0.01972    17.00502
      C   12   -0.59006      1.99930     4.58076    0.00999     6.59006
      H   13    0.20995      0.00000     0.78875    0.00130     0.79005
      H   14    0.21015      0.00000     0.78854    0.00132     0.78985
      H   15    0.21645      0.00000     0.78218    0.00136     0.78355
 =======================================================================
   * Total *    0.00000     23.99258    41.85625    0.15118    66.00000

                      1                      2                      3
                      A                      A                      A
 Frequencies --     43.0518               176.5193               214.1584
 Red. masses --      1.0213                 4.7874                 3.2215
 Frc consts  --      0.0011                 0.0879                 0.0871
 IR Inten    --      0.2645                 0.8867                 1.2667

                      4                      5                      6
                      A                      A                      A
 Frequencies --    233.5959               388.1277               413.6354
 Red. masses --      4.6290                 3.3363                 8.4497
 Frc consts  --      0.1488                 0.2961                 0.8518
 IR Inten    --      0.2737                 1.8098                 4.0010

                      7                      8                      9
                      A                      A                      A
 Frequencies --    443.3268               526.0276               544.0575
 Red. masses --      2.9015                 4.8204                 3.9294
 Frc consts  --      0.3360                 0.7859                 0.6853
 IR Inten    --      4.9076                 0.7033                 0.2220

                     10                     11                     12
                      A                      A                      A
 Frequencies --    693.3918               703.0039               787.9717
 Red. masses --      6.9100                 2.3270                 1.3775
 Frc consts  --      1.9574                 0.6776                 0.5039
 IR Inten    --     12.1295                16.9205                43.0107

                     13                     14                     15
                      A                      A                      A
 Frequencies --    861.2055               886.8546               911.0624
 Red. masses --      4.8213                 1.3442                 1.3619
 Frc consts  --      2.1068                 0.6229                 0.6660
 IR Inten    --     37.9067                 6.4706                 1.9346

                     16                     17                     18
                      A                      A                      A
 Frequencies --    990.5857              1009.4957              1015.7356
 Red. masses --      1.3195                 1.8368                 3.1998
 Frc consts  --      0.7629                 1.1028                 1.9451
 IR Inten    --      0.1106                 6.1200                 0.2394

                     19                     20                     21
                      A                      A                      A
 Frequencies --   1062.4552              1099.3804              1118.7431
 Red. masses --      1.5471                 2.1543                 1.4848
 Frc consts  --      1.0290                 1.5341                 1.0949
 IR Inten    --      7.4832                27.4905                 3.9651

                     22                     23                     24
                      A                      A                      A
 Frequencies --   1191.2588              1228.5825              1306.5976
 Red. masses --      1.1362                 2.7500                 2.3129
 Frc consts  --      0.9500                 2.4457                 2.3264
 IR Inten    --      1.2378                11.8825                 0.1556

                     25                     26                     27
                      A                      A                      A
 Frequencies --   1335.4180              1415.6244              1444.0744
 Red. masses --      2.1331                 1.2395                 2.3059
 Frc consts  --      2.2413                 1.4635                 2.8332
 IR Inten    --      0.5672                 1.2307                 4.4325

                     28                     29                     30
                      A                      A                      A
 Frequencies --   1489.8332              1495.9413              1509.0572
 Red. masses --      1.0500                 1.2071                 2.1924
 Frc consts  --      1.3731                 1.5916                 2.9416
 IR Inten    --      7.7930                16.2305                37.9920

                     31                     32                     33
                      A                      A                      A
 Frequencies --   1610.7313              1636.7324              3023.0995
 Red. masses --      5.4648                 6.0779                 1.0402
 Frc consts  --      8.3536                 9.5932                 5.6013
 IR Inten    --     32.8605                31.9806                24.4182

                     34                     35                     36
                      A                      A                      A
 Frequencies --   3078.2048              3104.0313              3163.3026
 Red. masses --      1.0950                 1.1025                 1.0873
 Frc consts  --      6.1129                 6.2588                 6.4103
 IR Inten    --     16.7129                14.5751                 5.9694

                     37                     38                     39
                      A                      A                      A
 Frequencies --   3180.0931              3184.2849              3203.0293
 Red. masses --      1.0927                 1.0916                 1.0945
 Frc consts  --      6.5108                 6.5214                 6.6160
 IR Inten    --     15.5210                 1.2015                 2.8172

 - Thermochemistry -
 -------------------
 Temperature   298.150 Kelvin.  Pressure   1.00000 Atm.
 Atom     1 has atomic number  6 and mass  12.00000

 Molecular mass:   126.02363 amu.
 Principal axes and moments of inertia in atomic units:
                           1         2         3
     Eigenvalues --   541.587731528.954632059.31530
           X            0.99909  -0.04275   0.00027
           Y            0.04275   0.99909  -0.00026
           Z           -0.00026   0.00027   1.00000
 This molecule is an asymmetric top.
 Rotational symmetry number  1.
 Warning -- assumption of classical behavior for rotation
           may cause significant error
 Rotational temperatures (Kelvin)      0.15993     0.05665     0.04206
 Rotational constants (GHZ):           3.33232     1.18038     0.87638
 Zero-point vibrational energy     309368.0 (Joules/Mol)
                                   73.94071 (Kcal/Mol)
 Warning -- explicit consideration of   9 degrees of freedom as
           vibrations may cause significant error
 Vibrational temperatures:     61.94   253.97   308.13   336.09   558.43
          (Kelvin)            595.13   637.85   756.84   782.78   997.63
                             1011.46  1133.71  1239.08  1275.98  1310.81
                             1425.23  1452.44  1461.42  1528.63  1581.76
                             1609.62  1713.95  1767.65  1879.90  1921.37
                             2036.77  2077.70  2143.54  2152.32  2171.19
                             2317.48  2354.89  4349.56  4428.84  4466.00
                             4551.28  4575.44  4581.47  4608.44

 Zero-point correction=                           0.117832 (Hartree/Particle)
 Thermal correction to Energy=                    0.125199
 Thermal correction to Enthalpy=                  0.126144
 Thermal correction to Gibbs Free Energy=         0.085037
 Sum of electronic and zero-point Energies=           -731.144299
 Sum of electronic and thermal Energies=              -731.136932
 Sum of electronic and thermal Enthalpies=            -731.135988
 Sum of electronic and thermal Free Energies=         -731.177094

                     E (Thermal)             CV                S
                      KCal/Mol        Cal/Mol-Kelvin    Cal/Mol-Kelvin
 Total                   78.564             27.136             86.515
 Electronic               0.000              0.000              0.000
 Translational            0.889              2.981             40.408
 Rotational               0.889              2.981             28.924
 Vibrational             76.786             21.174             17.184
 Vibration     1          0.595              1.980              5.113
 Vibration     2          0.628              1.871              2.365
 Vibration     3          0.644              1.819              2.008
 Vibration     4          0.654              1.790              1.851
 Vibration     5          0.756              1.496              1.007
 Vibration     6          0.777              1.441              0.914
 Vibration     7          0.803              1.376              0.816
 Vibration     8          0.881              1.192              0.596
 Vibration     9          0.899              1.153              0.557

 Normal termination of Gaussian 09 at Tue Nov  2 16:10:29 2021.
