 Gaussian 09, Revision D.01,
 Gaussian 09:  ES64L-G09RevD.01 24-Apr-2013

 ----------------------------------------------------------------------
 # opt freq=noraman b3lyp/6-311+g(d,p) pop=(npa,hirshfeld,chelpg,mbs) g
 eom=connectivity
 ----------------------------------------------------------------------

 -------------------
 Title Card Required
 -------------------
 Symbolic Z-matrix:
 Charge =  0 Multiplicity = 1

 SCF Done:  E(RB3LYP) =  -1438.99657195     A.U. after   18 cycles
 SCF Done:  E(RB3LYP) =  -1439.08742712     A.U. after   18 cycles
 SCF Done:  E(RB3LYP) =  -1439.07891981     A.U. after   17 cycles
 SCF Done:  E(RB3LYP) =  -1439.09791502     A.U. after   15 cycles
 SCF Done:  E(RB3LYP) =  -1439.13040208     A.U. after   15 cycles
 SCF Done:  E(RB3LYP) =  -1439.14029344     A.U. after   14 cycles
 SCF Done:  E(RB3LYP) =  -1439.14136164     A.U. after   15 cycles
 SCF Done:  E(RB3LYP) =  -1439.14544160     A.U. after   16 cycles
 SCF Done:  E(RB3LYP) =  -1439.14542502     A.U. after   13 cycles
 SCF Done:  E(RB3LYP) =  -1439.14659399     A.U. after   10 cycles
 SCF Done:  E(RB3LYP) =  -1439.14949923     A.U. after   13 cycles
 SCF Done:  E(RB3LYP) =  -1439.14952252     A.U. after   11 cycles
 SCF Done:  E(RB3LYP) =  -1439.14952625     A.U. after   11 cycles
 SCF Done:  E(RB3LYP) =  -1439.14953084     A.U. after   11 cycles
 SCF Done:  E(RB3LYP) =  -1439.14953216     A.U. after   10 cycles
 SCF Done:  E(RB3LYP) =  -1439.14953267     A.U. after   11 cycles
 SCF Done:  E(RB3LYP) =  -1439.14953292     A.U. after   10 cycles
 SCF Done:  E(RB3LYP) =  -1439.14953297     A.U. after   10 cycles
 SCF Done:  E(RB3LYP) =  -1439.14953304     A.U. after    9 cycles
 Optimization completed.
    -- Stationary point found.
 Normal termination of Gaussian 09 at Tue Apr 23 15:26:26 2024.

 ----------------------------------------------------------------------
 #N Geom=AllCheck Guess=TCheck SCRF=Check GenChk RB3LYP/6-311+G(d,p) Fr
 eq
 ----------------------------------------------------------------------

 Structure from the checkpoint file:  "76.chk"
 -------------------
 Title Card Required
 -------------------
 Charge =  0 Multiplicity = 1

                         Standard orientation:
 ---------------------------------------------------------------------
 Center     Atomic      Atomic             Coordinates (Angstroms)
 Number     Number       Type             X           Y           Z
 ---------------------------------------------------------------------
      1          6           0        4.351772    0.576543    0.947695
      2          6           0        3.433886    0.936692    1.931719
      3          6           0        2.067187    0.785374    1.715295
      4          6           0        1.618945    0.273715    0.502277
      5          6           0        2.519087   -0.089216   -0.494937
      6          6           0        3.879491    0.065301   -0.256695
      7          1           0        5.415896    0.688993    1.110170
      8          1           0        3.791369    1.332777    2.874936
      9          1           0        1.350297    1.053794    2.481314
     10          1           0        2.162822   -0.477044   -1.439992
     11         17           0        5.026279   -0.390389   -1.510890
     12          7           0        0.200439    0.115030    0.267136
     13          6           0       -0.491457    1.280568   -0.140450
     14          8           0        0.091588    2.214872   -0.637235
     15          8           0       -1.787901    1.225509    0.162736
     16          6           0       -0.319561   -1.184172    0.474917
     17          8           0        0.270867   -1.996755    1.146591
     18          8           0       -1.447835   -1.386157   -0.204581
     19          6           0       -2.709248    2.327568   -0.218441
     20          6           0       -2.189761   -2.668844   -0.092536
     21          6           0       -2.313960    3.612161    0.513355
     22          1           0       -1.352872    3.989164    0.168140
     23          1           0       -3.075281    4.376250    0.334046
     24          1           0       -2.260751    3.435260    1.590732
     25          6           0       -2.722299    2.496670   -1.738657
     26          1           0       -3.497834    3.217127   -2.012211
     27          1           0       -1.765458    2.861347   -2.109085
     28          1           0       -2.955284    1.546535   -2.225657
     29          6           0       -4.057841    1.813144    0.283642
     30          1           0       -4.835731    2.552070    0.077427
     31          1           0       -4.325207    0.880166   -0.216024
     32          1           0       -4.026222    1.634810    1.360668
     33          6           0       -1.339308   -3.810372   -0.653399
     34          1           0       -0.461567   -3.993926   -0.036185
     35          1           0       -1.940685   -4.722906   -0.688130
     36          1           0       -1.016497   -3.579882   -1.671923
     37          6           0       -2.609658   -2.906314    1.359040
     38          1           0       -3.161916   -2.044485    1.741905
     39          1           0       -3.267706   -3.778203    1.404019
     40          1           0       -1.747964   -3.089470    1.999019
     41          6           0       -3.409097   -2.415718   -0.978317
     42          1           0       -3.101907   -2.187905   -2.001323
     43          1           0       -4.045101   -3.303907   -0.997413
     44          1           0       -3.995041   -1.577526   -0.596402
 ---------------------------------------------------------------------

 SCF Done:  E(RB3LYP) =  -1439.14953304     A.U. after    1 cycles

 The electronic state is 1-A.
 Alpha  occ. eigenvalues -- -101.55403 -19.16996 -19.16957 -19.11119 -19.11082
 Alpha  occ. eigenvalues --  -14.37079 -10.33929 -10.33903 -10.25671 -10.25635
 Alpha  occ. eigenvalues --  -10.24383 -10.23165 -10.19341 -10.19290 -10.19207
 Alpha  occ. eigenvalues --  -10.18852 -10.17372 -10.17333 -10.16857 -10.16841
 Alpha  occ. eigenvalues --  -10.16772 -10.16709  -9.46861  -7.23320  -7.22343
 Alpha  occ. eigenvalues --   -7.22312  -1.12988  -1.11247  -1.03626  -1.03078
 Alpha  occ. eigenvalues --   -0.95753  -0.89606  -0.84383  -0.82601  -0.82264
 Alpha  occ. eigenvalues --   -0.76553  -0.74509  -0.70749  -0.70674  -0.70527
 Alpha  occ. eigenvalues --   -0.70476  -0.68085  -0.66252  -0.62441  -0.60341
 Alpha  occ. eigenvalues --   -0.60107  -0.54285  -0.52538  -0.52174  -0.50784
 Alpha  occ. eigenvalues --   -0.50540  -0.48253  -0.47996  -0.47842  -0.47486
 Alpha  occ. eigenvalues --   -0.46559  -0.45633  -0.45411  -0.45012  -0.44258
 Alpha  occ. eigenvalues --   -0.44074  -0.42787  -0.42640  -0.40703  -0.40593
 Alpha  occ. eigenvalues --   -0.40174  -0.39981  -0.39483  -0.38796  -0.38175
 Alpha  occ. eigenvalues --   -0.37980  -0.37770  -0.37511  -0.36699  -0.36316
 Alpha  occ. eigenvalues --   -0.36254  -0.35586  -0.34554  -0.33928  -0.31866
 Alpha  occ. eigenvalues --   -0.31479  -0.30872  -0.30574  -0.29515  -0.27528
 Alpha  occ. eigenvalues --   -0.26922  -0.25480
 Alpha virt. eigenvalues --   -0.03275  -0.02789  -0.01237  -0.00925   0.00241
 Alpha virt. eigenvalues --    0.00486   0.01423   0.01539   0.02173   0.02450
 Alpha virt. eigenvalues --    0.02795   0.03252   0.03621   0.04315   0.04513

 Mulliken charges:
               1
     1  C   -0.557679
     2  C   -0.190261
     3  C    0.085039
     4  C   -1.009799
     5  C   -0.370467
     6  C    1.058091
     7  H    0.146230
     8  H    0.134147
     9  H    0.119981
    10  H    0.136063
    11  Cl   0.350660
    12  N    0.100080
    13  C   -0.034131
    14  O   -0.180776
    15  O    0.151218
    16  C   -0.038118
    17  O   -0.180585
    18  O    0.152804
    19  C   -0.172839
    20  C   -0.166610
    21  C   -0.422201
    22  H    0.188894
    23  H    0.144208
    24  H    0.148690
    25  C   -0.325689
    26  H    0.144924
    27  H    0.183075
    28  H    0.149956
    29  C   -0.437834
    30  H    0.151164
    31  H    0.151455
    32  H    0.155498
    33  C   -0.416084
    34  H    0.188856
    35  H    0.144159
    36  H    0.149814
    37  C   -0.327895
    38  H    0.149252
    39  H    0.144827
    40  H    0.183010
    41  C   -0.439759
    42  H    0.156076
    43  H    0.151322
    44  H    0.151234
 Sum of Mulliken charges =   0.00000

 Dipole moment (field-independent basis, Debye):
    X=             -4.3425    Y=              0.1408    Z=              0.7865  Tot=              4.4154
 Quadrupole moment (field-independent basis, Debye-Ang):
   XX=           -130.9274   YY=           -137.2132   ZZ=           -137.0432
   XY=              2.3701   XZ=              7.0783   YZ=              7.4963

  Exact polarizability: 265.495  -0.117 204.989  -2.915  10.477 198.261
 Approx polarizability: 350.925   0.165 286.116  -7.506  13.726 316.932

 ESP charges:
               1
     1  C   -0.074748
     2  C   -0.118789
     3  C   -0.154861
     4  C    0.343398
     5  C   -0.138021
     6  C    0.092174
     7  H    0.098679
     8  H    0.116358
     9  H    0.117795
    10  H    0.116609
    11  Cl  -0.136368
    12  N   -0.644939
    13  C    1.024792
    14  O   -0.656581
    15  O   -0.639264
    16  C    1.022446
    17  O   -0.658691
    18  O   -0.630649
    19  C    0.906643
    20  C    0.896321
    21  C   -0.464335
    22  H    0.131037
    23  H    0.085575
    24  H    0.091912
    25  C   -0.481458
    26  H    0.086079
    27  H    0.139230
    28  H    0.100845
    29  C   -0.392596
    30  H    0.070938
    31  H    0.096829
    32  H    0.091318
    33  C   -0.468235
    34  H    0.133033
    35  H    0.085413
    36  H    0.093726
    37  C   -0.459962
    38  H    0.094541
    39  H    0.079806
    40  H    0.132436
    41  C   -0.351157
    42  H    0.080219
    43  H    0.061258
    44  H    0.081242
 Sum of ESP charges =   0.00000

 Summary of Natural Population Analysis:

                                       Natural Population
                Natural  -----------------------------------------------
    Atom  No    Charge         Core      Valence    Rydberg      Total
 -----------------------------------------------------------------------
      C    1   -0.22057      1.99897     4.20289    0.01871     6.22057
      C    2   -0.17900      1.99916     4.16272    0.01711     6.17900
      C    3   -0.19048      1.99900     4.17576    0.01572     6.19048
      C    4    0.18701      1.99891     3.79276    0.02132     5.81299
      C    5   -0.21044      1.99881     4.19288    0.01876     6.21044
      C    6   -0.02803      1.99858     4.00675    0.02269     6.02803
      H    7    0.22382      0.00000     0.77455    0.00164     0.77618
      H    8    0.21268      0.00000     0.78577    0.00155     0.78732
      H    9    0.21801      0.00000     0.78050    0.00150     0.78199
      H   10    0.23189      0.00000     0.76648    0.00163     0.76811
     Cl   11    0.00189      9.99962     6.97900    0.01950    16.99811
      N   12   -0.58016      1.99916     5.55347    0.02754     7.58016
      C   13    0.95953      1.99937     2.99163    0.04946     5.04047
      O   14   -0.61715      1.99973     6.60725    0.01017     8.61715
      O   15   -0.57447      1.99968     6.55600    0.01879     8.57447
      C   16    0.95913      1.99937     2.99209    0.04941     5.04087
      O   17   -0.61800      1.99973     6.60809    0.01017     8.61800
      O   18   -0.57494      1.99968     6.55640    0.01885     8.57494
      C   19    0.27491      1.99910     3.70387    0.02212     5.72509
      C   20    0.27514      1.99910     3.70365    0.02211     5.72486
      C   21   -0.60582      1.99923     4.59529    0.01130     6.60582
      H   22    0.23275      0.00000     0.76568    0.00157     0.76725
      H   23    0.20731      0.00000     0.79142    0.00127     0.79269
      H   24    0.20644      0.00000     0.79219    0.00137     0.79356
      C   25   -0.60670      1.99923     4.59634    0.01113     6.60670
      H   26    0.20828      0.00000     0.79044    0.00127     0.79172
      H   27    0.23063      0.00000     0.76786    0.00151     0.76937
      H   28    0.20841      0.00000     0.79019    0.00139     0.79159
      C   29   -0.58099      1.99923     4.56944    0.01232     6.58099
      H   30    0.20645      0.00000     0.79240    0.00114     0.79355
      H   31    0.20763      0.00000     0.79072    0.00165     0.79237
      H   32    0.21015      0.00000     0.78848    0.00138     0.78985
      C   33   -0.60576      1.99923     4.59522    0.01131     6.60576
      H   34    0.23253      0.00000     0.76590    0.00157     0.76747
      H   35    0.20737      0.00000     0.79137    0.00127     0.79263
      H   36    0.20713      0.00000     0.79151    0.00136     0.79287
      C   37   -0.60685      1.99923     4.59651    0.01112     6.60685
      H   38    0.20812      0.00000     0.79049    0.00139     0.79188
      H   39    0.20828      0.00000     0.79045    0.00128     0.79172
      H   40    0.23067      0.00000     0.76782    0.00151     0.76933
      C   41   -0.58110      1.99923     4.56955    0.01232     6.58110
      H   42    0.21039      0.00000     0.78823    0.00138     0.78961
      H   43    0.20646      0.00000     0.79240    0.00114     0.79354
      H   44    0.20746      0.00000     0.79089    0.00165     0.79254
 =======================================================================
   * Total *    0.00000     51.98335   121.55329    0.46336   174.00000

                      1                      2                      3
                      A                      A                      A
 Frequencies --     13.1565                20.0716                26.2350
 Red. masses --      6.8607                 3.3991                 3.4737
 Frc consts  --      0.0007                 0.0008                 0.0014
 IR Inten    --      0.1003                 0.2624                 0.4318

                      4                      5                      6
                      A                      A                      A
 Frequencies --     33.6689                51.0442                58.7532
 Red. masses --      4.5293                 4.1347                 4.8088
 Frc consts  --      0.0030                 0.0063                 0.0098
 IR Inten    --      1.1137                 0.3724                 1.6546

                      7                      8                      9
                      A                      A                      A
 Frequencies --     87.7843                98.7931               112.5003
 Red. masses --      4.8898                 7.3853                 3.7247
 Frc consts  --      0.0222                 0.0425                 0.0278
 IR Inten    --      0.2525                 2.7874                 0.2626

                     10                     11                     12
                      A                      A                      A
 Frequencies --    130.6117               161.3230               188.7546
 Red. masses --      3.3967                 4.7320                 5.2457
 Frc consts  --      0.0341                 0.0726                 0.1101
 IR Inten    --      0.3828                 0.4698                 0.1404

                     13                     14                     15
                      A                      A                      A
 Frequencies --    196.5190               205.4140               210.3083
 Red. masses --      1.1282                 1.5869                 1.7705
 Frc consts  --      0.0257                 0.0395                 0.0461
 IR Inten    --      0.2934                 2.8850                 2.8732

                     16                     17                     18
                      A                      A                      A
 Frequencies --    212.7083               240.2712               242.4056
 Red. masses --      4.4969                 1.8975                 1.2057
 Frc consts  --      0.1199                 0.0645                 0.0417
 IR Inten    --      4.4236                 2.2913                 0.5495

                     19                     20                     21
                      A                      A                      A
 Frequencies --    254.8737               264.6250               271.5046
 Red. masses --      1.3061                 1.0790                 1.1000
 Frc consts  --      0.0500                 0.0445                 0.0478
 IR Inten    --      0.5728                 0.1052                 0.0213

                     22                     23                     24
                      A                      A                      A
 Frequencies --    280.5740               303.0899               327.2631
 Red. masses --      4.3155                 4.3290                 3.6039
 Frc consts  --      0.2002                 0.2343                 0.2274
 IR Inten    --      1.1661                 3.3017                 6.7589

                     25                     26                     27
                      A                      A                      A
 Frequencies --    329.9472               350.8900               352.5321
 Red. masses --      3.2675                 2.5645                 2.5543
 Frc consts  --      0.2096                 0.1860                 0.1870
 IR Inten    --     16.4320                 1.7952                 1.3881

                     28                     29                     30
                      A                      A                      A
 Frequencies --    407.1650               409.7774               427.1879
 Red. masses --      4.3675                 4.7398                 2.7336
 Frc consts  --      0.4266                 0.4689                 0.2939
 IR Inten    --      1.7541                 8.6006                 0.3262

                     31                     32                     33
                      A                      A                      A
 Frequencies --    446.2529               451.4779               453.1256
 Red. masses --      3.5288                 2.8637                 3.0336
 Frc consts  --      0.4140                 0.3439                 0.3670
 IR Inten    --      2.7488                 2.9884                 1.8571

                     34                     35                     36
                      A                      A                      A
 Frequencies --    461.1306               464.5479               495.0314
 Red. masses --      2.9604                 2.9948                 3.8219
 Frc consts  --      0.3709                 0.3808                 0.5518
 IR Inten    --      6.5767                 7.5275                10.7046

                     37                     38                     39
                      A                      A                      A
 Frequencies --    503.0931               578.4118               632.3281
 Red. masses --      6.4600                 5.4554                 5.9724
 Frc consts  --      0.9633                 1.0753                 1.4070
 IR Inten    --      0.6814                 0.7732                 0.9844

                     40                     41                     42
                      A                      A                      A
 Frequencies --    696.4332               697.8631               750.2477
 Red. masses --      2.5808                 5.6995                 3.8335
 Frc consts  --      0.7375                 1.6354                 1.2713
 IR Inten    --     14.7783                10.4205                 3.5876

                     43                     44                     45
                      A                      A                      A
 Frequencies --    769.0610               770.5270               787.9755
 Red. masses --      6.2308                 5.4693                 6.5407
 Frc consts  --      2.1713                 1.9132                 2.3928
 IR Inten    --     17.4346                31.3082                45.7418

                     46                     47                     48
                      A                      A                      A
 Frequencies --    789.1461               822.7102               846.5135
 Red. masses --      2.1610                 3.7215                 3.8108
 Frc consts  --      0.7929                 1.4841                 1.6089
 IR Inten    --     29.6278                11.3683                80.8914

                     49                     50                     51
                      A                      A                      A
 Frequencies --    851.4204               880.5871               899.3088
 Red. masses --      3.4240                 8.1039                 1.5369
 Frc consts  --      1.4624                 3.7024                 0.7324
 IR Inten    --     33.2627                 3.4984                 4.0374

                     52                     53                     54
                      A                      A                      A
 Frequencies --    919.5658               925.0706               926.1435
 Red. masses --      1.4450                 1.6401                 1.6467
 Frc consts  --      0.7199                 0.8269                 0.8322
 IR Inten    --      0.7518                 0.0289                 0.1080

                     55                     56                     57
                      A                      A                      A
 Frequencies --    927.1363               928.6787               970.7084
 Red. masses --      1.6354                 1.6491                 1.2008
 Frc consts  --      0.8283                 0.8380                 0.6666
 IR Inten    --      0.3557                 0.1129                 0.1582

                     58                     59                     60
                      A                      A                      A
 Frequencies --    971.5344               990.3240              1017.3538
 Red. masses --      1.2016                 1.3267                 6.3837
 Frc consts  --      0.6682                 0.7666                 3.8928
 IR Inten    --      0.0212                 0.0084                 7.1405

                     61                     62                     63
                      A                      A                      A
 Frequencies --   1035.5352              1050.6978              1051.0732
 Red. masses --      4.2434                 1.4128                 1.4114
 Frc consts  --      2.6810                 0.9189                 0.9187
 IR Inten    --     54.7934                 1.2532                 0.4268

                     64                     65                     66
                      A                      A                      A
 Frequencies --   1055.2243              1061.7801              1094.2235
 Red. masses --      1.4460                 1.5719                 1.9671
 Frc consts  --      0.9486                 1.0441                 1.3877
 IR Inten    --      3.7879                10.7815                24.7267

                     67                     68                     69
                      A                      A                      A
 Frequencies --   1113.7745              1129.4586              1180.6474
 Red. masses --      1.5963                 6.2670                 3.3003
 Frc consts  --      1.1667                 4.7103                 2.7105
 IR Inten    --      7.9007               488.7624               236.0163

                     70                     71                     72
                      A                      A                      A
 Frequencies --   1186.7891              1196.8410              1252.0641
 Red. masses --      1.1270                 2.1174                 4.0084
 Frc consts  --      0.9352                 1.7870                 3.7023
 IR Inten    --      8.1205               331.2857               249.8050

                     73                     74                     75
                      A                      A                      A
 Frequencies --   1254.9766              1266.2675              1267.5658
 Red. masses --      3.6504                 2.7458                 2.7574
 Frc consts  --      3.3874                 2.5940                 2.6103
 IR Inten    --    106.4399                19.9672                 8.0049

                     76                     77                     78
                      A                      A                      A
 Frequencies --   1280.0663              1287.8427              1297.0892
 Red. masses --      2.8343                 3.2396                 2.1764
 Frc consts  --      2.7363                 3.1657                 2.1573
 IR Inten    --     46.8066               154.0166                12.0820

                     79                     80                     81
                      A                      A                      A
 Frequencies --   1332.4384              1364.2216              1399.1849
 Red. masses --      2.6946                 8.4961                 1.2716
 Frc consts  --      2.8187                 9.3162                 1.4667
 IR Inten    --      1.4418               735.8180                16.9132

                     82                     83                     84
                      A                      A                      A
 Frequencies --   1400.4318              1401.8699              1403.0876
 Red. masses --      1.2694                 1.2789                 1.2963
 Frc consts  --      1.4668                 1.4808                 1.5036
 IR Inten    --     22.4953                28.5249                 5.0764

                     85                     86                     87
                      A                      A                      A
 Frequencies --   1426.6041              1428.7119              1452.8471
 Red. masses --      1.2336                 1.2351                 2.9888
 Frc consts  --      1.4792                 1.4854                 3.7169
 IR Inten    --     26.2882                18.5004                12.9691

                     88                     89                     90
                      A                      A                      A
 Frequencies --   1469.3590              1471.2820              1489.5119
 Red. masses --      1.0455                 1.0452                 1.0464
 Frc consts  --      1.3299                 1.3331                 1.3678
 IR Inten    --      0.3409                 0.1933                 0.3501

                     91                     92                     93
                      A                      A                      A
 Frequencies --   1490.5525              1492.3792              1492.6873
 Red. masses --      1.0516                 1.0467                 1.0496
 Frc consts  --      1.3765                 1.3736                 1.3778
 IR Inten    --      3.6587                 0.8228                 1.3208

                     94                     95                     96
                      A                      A                      A
 Frequencies --   1496.9593              1497.4811              1503.3943
 Red. masses --      1.0670                 1.0674                 1.0531
 Frc consts  --      1.4087                 1.4103                 1.4024
 IR Inten    --     18.7298                 2.7319                 2.1588

                     97                     98                     99
                      A                      A                      A
 Frequencies --   1505.9642              1507.4473              1525.4795
 Red. masses --      1.0584                 2.3848                 1.0552
 Frc consts  --      1.4143                 3.1929                 1.4467
 IR Inten    --      0.2238                49.5055                11.2450

                    100                    101                    102
                      A                      A                      A
 Frequencies --   1527.8388              1619.0733              1633.2392
 Red. masses --      1.0551                 6.4149                 6.2699
 Frc consts  --      1.4511                 9.9077                 9.8540
 IR Inten    --     29.1931                44.5865                19.1940

                    103                    104                    105
                      A                      A                      A
 Frequencies --   1747.5816              1781.8037              3035.6799
 Red. masses --     11.9018                12.1602                 1.0372
 Frc consts  --     21.4160                22.7463                 5.6314
 IR Inten    --    459.6627               223.5380                23.1268

                    106                    107                    108
                      A                      A                      A
 Frequencies --   3035.8629              3036.8603              3037.0625
 Red. masses --      1.0367                 1.0359                 1.0364
 Frc consts  --      5.6295                 5.6289                 5.6322
 IR Inten    --      7.1196                12.4880                15.3037

                    109                    110                    111
                      A                      A                      A
 Frequencies --   3044.1367              3044.6263              3095.2518
 Red. masses --      1.0373                 1.0371                 1.1018
 Frc consts  --      5.6636                 5.6642                 6.2192
 IR Inten    --      9.9658                35.0784                 9.1077

                    112                    113                    114
                      A                      A                      A
 Frequencies --   3095.6375              3098.4342              3098.6762
 Red. masses --      1.1017                 1.1017                 1.1018
 Frc consts  --      6.2205                 6.2318                 6.2329
 IR Inten    --      8.4657                10.4599                16.8690

                    115                    116                    117
                      A                      A                      A
 Frequencies --   3110.5844              3110.6757              3112.9652
 Red. masses --      1.1020                 1.1020                 1.1026
 Frc consts  --      6.2824                 6.2827                 6.2951
 IR Inten    --     43.3722                40.5203                54.3165

                    118                    119                    120
                      A                      A                      A
 Frequencies --   3115.4047              3136.8720              3139.0717
 Red. masses --      1.1022                 1.1004                 1.1000
 Frc consts  --      6.3029                 6.3796                 6.3865
 IR Inten    --      9.4595                 3.2244                 0.4864

                    121                    122                    123
                      A                      A                      A
 Frequencies --   3141.9926              3142.4486              3178.3763
 Red. masses --      1.0994                 1.0993                 1.0877
 Frc consts  --      6.3945                 6.3960                 6.4738
 IR Inten    --     11.2161                 9.6564                 5.8352

                    124                    125                    126
                      A                      A                      A
 Frequencies --   3197.5969              3204.8876              3208.7856
 Red. masses --      1.0927                 1.0958                 1.0929
 Frc consts  --      6.5829                 6.6315                 6.6302
 IR Inten    --      4.0360                 3.2342                 0.3880

 - Thermochemistry -
 -------------------
 Temperature   298.150 Kelvin.  Pressure   1.00000 Atm.
 Atom     1 has atomic number  6 and mass  12.00000

 Molecular mass:   327.12374 amu.
 Principal axes and moments of inertia in atomic units:
                           1         2         3
     Eigenvalues --  5542.36005********************
           X            0.99988   0.00425   0.01466
           Y           -0.00432   0.99998   0.00484
           Z           -0.01464  -0.00490   0.99988
 This molecule is an asymmetric top.
 Rotational symmetry number  1.
 Warning -- assumption of classical behavior for rotation
           may cause significant error
 Rotational temperatures (Kelvin)      0.01563     0.00814     0.00631
 Rotational constants (GHZ):           0.32563     0.16954     0.13138
 Zero-point vibrational energy     940496.3 (Joules/Mol)
                                  224.78400 (Kcal/Mol)
 Warning -- explicit consideration of  38 degrees of freedom as
           vibrations may cause significant error
 Vibrational temperatures:     18.93    28.88    37.75    48.44    73.44
          (Kelvin)             84.53   126.30   142.14   161.86   187.92
                              232.11   271.58   282.75   295.54   302.59
                              306.04   345.70   348.77   366.71   380.74
                              390.63   403.68   436.08   470.86   474.72
                              504.85   507.21   585.82   589.58   614.63
                              642.06   649.58   651.95   663.46   668.38
                              712.24   723.84   832.20   909.78  1002.01
                             1004.07  1079.44  1106.51  1108.62  1133.72
                             1135.40  1183.69  1217.94  1225.00  1266.97
                             1293.90  1323.05  1330.97  1332.51  1333.94
                             1336.16  1396.63  1397.82  1424.85  1463.74
                             1489.90  1511.72  1512.26  1518.23  1527.66
                             1574.34  1602.47  1625.04  1698.69  1707.52
                             1721.99  1801.44  1805.63  1821.87  1823.74
                             1841.73  1852.92  1866.22  1917.08  1962.81
                             2013.11  2014.91  2016.98  2018.73  2052.56
                             2055.60  2090.32  2114.08  2116.84  2143.07
                             2144.57  2147.20  2147.64  2153.79  2154.54
                             2163.05  2166.74  2168.88  2194.82  2198.22
                             2329.48  2349.86  2514.38  2563.61  4367.66
                             4367.92  4369.36  4369.65  4379.83  4380.53
                             4453.37  4453.93  4457.95  4458.30  4475.43
                             4475.56  4478.86  4482.37  4513.25  4516.42
                             4520.62  4521.28  4572.97  4600.62  4611.11
                             4616.72

 Zero-point correction=                           0.358216 (Hartree/Particle)
 Thermal correction to Energy=                    0.382137
 Thermal correction to Enthalpy=                  0.383082
 Thermal correction to Gibbs Free Energy=         0.302413
 Sum of electronic and zero-point Energies=          -1438.791317
 Sum of electronic and thermal Energies=             -1438.767396
 Sum of electronic and thermal Enthalpies=           -1438.766451
 Sum of electronic and thermal Free Energies=        -1438.847120

                     E (Thermal)             CV                S
                      KCal/Mol        Cal/Mol-Kelvin    Cal/Mol-Kelvin
 Total                  239.795             88.966            169.781
 Electronic               0.000              0.000              0.000
 Translational            0.889              2.981             43.251
 Rotational               0.889              2.981             35.048
 Vibrational            238.017             83.005             91.482
 Vibration     1          0.593              1.987              7.466
 Vibration     2          0.593              1.986              6.627
 Vibration     3          0.593              1.985              6.096
 Vibration     4          0.594              1.983              5.601
 Vibration     5          0.595              1.977              4.777
 Vibration     6          0.596              1.974              4.499
 Vibration     7          0.601              1.958              3.709
 Vibration     8          0.604              1.950              3.478
 Vibration     9          0.607              1.939              3.225
 Vibration    10          0.612              1.923              2.937
 Vibration    11          0.622              1.890              2.534
 Vibration    12          0.633              1.855              2.240
 Vibration    13          0.636              1.845              2.165
 Vibration    14          0.640              1.832              2.084
 Vibration    15          0.642              1.825              2.041
 Vibration    16          0.644              1.822              2.020
 Vibration    17          0.657              1.779              1.801
 Vibration    18          0.659              1.775              1.785
 Vibration    19          0.665              1.755              1.697
 Vibration    20          0.671              1.738              1.631
 Vibration    21          0.675              1.726              1.587
 Vibration    22          0.680              1.710              1.530
 Vibration    23          0.695              1.668              1.400
 Vibration    24          0.711              1.621              1.274
 Vibration    25          0.713              1.616              1.260
 Vibration    26          0.728              1.573              1.162
 Vibration    27          0.729              1.570              1.155
 Vibration    28          0.772              1.455              0.937
 Vibration    29          0.774              1.449              0.927
 Vibration    30          0.789              1.411              0.868
 Vibration    31          0.806              1.369              0.807
 Vibration    32          0.810              1.358              0.791
 Vibration    33          0.812              1.354              0.786
 Vibration    34          0.819              1.336              0.763
 Vibration    35          0.822              1.329              0.753
 Vibration    36          0.851              1.261              0.671
 Vibration    37          0.858              1.243              0.650
 Vibration    38          0.935              1.078              0.488

 Optimization completed.
    -- Stationary point found.
 Normal termination of Gaussian 09 at Tue Apr 23 16:14:06 2024.
