 Gaussian 09, Revision D.01,
 Gaussian 09:  ES64L-G09RevD.01 24-Apr-2013

 ----------------------------------------------------------------------
 # opt freq=noraman b3lyp/6-311+g(d,p) pop=(npa,hirshfeld,chelpg,mbs) g
 eom=connectivity
 ----------------------------------------------------------------------

 -------------------
 Title Card Required
 -------------------
 Symbolic Z-matrix:
 Charge =  0 Multiplicity = 1

 SCF Done:  E(RB3LYP) =  -805.287197962     A.U. after   15 cycles
 SCF Done:  E(RB3LYP) =  -805.290333402     A.U. after   13 cycles
 SCF Done:  E(RB3LYP) =  -805.290422778     A.U. after   12 cycles
 SCF Done:  E(RB3LYP) =  -805.284619320     A.U. after   14 cycles
 SCF Done:  E(RB3LYP) =  -805.290430292     A.U. after   10 cycles
 SCF Done:  E(RB3LYP) =  -805.290433372     A.U. after   11 cycles
 SCF Done:  E(RB3LYP) =  -805.290433482     A.U. after    9 cycles
 SCF Done:  E(RB3LYP) =  -805.290433484     A.U. after    9 cycles
 Optimization completed.
    -- Stationary point found.
 Normal termination of Gaussian 09 at Tue Apr 23 12:08:57 2024.

 ----------------------------------------------------------------------
 #N Geom=AllCheck Guess=TCheck SCRF=Check GenChk RB3LYP/6-311+G(d,p) Fr
 eq
 ----------------------------------------------------------------------

 Structure from the checkpoint file:  "4.chk"
 -------------------
 Title Card Required
 -------------------
 Charge =  0 Multiplicity = 1

                         Standard orientation:
 ---------------------------------------------------------------------
 Center     Atomic      Atomic             Coordinates (Angstroms)
 Number     Number       Type             X           Y           Z
 ---------------------------------------------------------------------
      1          6           0       -0.059040   -0.797562   -0.000069
      2          6           0        1.200200   -0.189705   -0.000165
      3          6           0        1.310418    1.206136   -0.000142
      4          6           0        0.161359    1.985571   -0.000031
      5          6           0       -1.101076    1.387244    0.000025
      6          6           0       -1.197864   -0.001092   -0.000001
      7          1           0       -0.147283   -1.878021   -0.000071
      8          1           0        2.296985    1.653183   -0.000209
      9          1           0        0.235357    3.066824   -0.000001
     10          1           0       -1.999874    1.990812    0.000103
     11          6           0        2.411110   -1.047543   -0.000286
     12          8           0        3.547512   -0.633403    0.000486
     13          1           0        2.205658   -2.138532   -0.001138
     14         17           0       -2.783622   -0.757961    0.000085
 ---------------------------------------------------------------------

 SCF Done:  E(RB3LYP) =  -805.290433484     A.U. after    1 cycles

 The electronic state is 1-A.
 Alpha  occ. eigenvalues -- -101.56997 -19.13649 -10.27666 -10.26220 -10.21646
 Alpha  occ. eigenvalues --  -10.21489 -10.21330 -10.20950 -10.20624  -9.48452
 Alpha  occ. eigenvalues --   -7.24917  -7.23933  -7.23900  -1.06665  -0.91765
 Alpha  occ. eigenvalues --   -0.86338  -0.79776  -0.76292  -0.67954  -0.64153
 Alpha  occ. eigenvalues --   -0.58599  -0.54651  -0.51431  -0.49033  -0.46646
 Alpha  occ. eigenvalues --   -0.45751  -0.45169  -0.43513  -0.40551  -0.40013
 Alpha  occ. eigenvalues --   -0.38661  -0.35290  -0.33432  -0.29310  -0.27884
 Alpha  occ. eigenvalues --   -0.27307
 Alpha virt. eigenvalues --   -0.09032  -0.04635  -0.00770   0.00271   0.00439
 Alpha virt. eigenvalues --    0.00921   0.02368   0.03777   0.03990   0.04177
 Alpha virt. eigenvalues --    0.05045   0.07076   0.07352   0.07572   0.07649

 Mulliken charges:
               1
     1  C   -1.082986
     2  C    0.579155
     3  C    0.030128
     4  C   -0.319480
     5  C   -0.657412
     6  C    0.877595
     7  H    0.152569
     8  H    0.158780
     9  H    0.141885
    10  H    0.157294
    11  C   -0.257306
    12  O   -0.255941
    13  H    0.105100
    14  Cl   0.370621
 Sum of Mulliken charges =   0.00000

 Dipole moment (field-independent basis, Debye):
    X=             -1.8486    Y=              0.9361    Z=             -0.0014  Tot=              2.0721
 Quadrupole moment (field-independent basis, Debye-Ang):
   XX=            -74.1455   YY=            -50.7547   ZZ=            -61.1808
   XY=             -0.6659   XZ=             -0.0055   YZ=              0.0014

  Exact polarizability: 136.837   0.450 102.462  -0.013   0.006  51.236
 Approx polarizability: 214.482   3.950 166.361   0.006   0.007  77.123

 ESP charges:
               1
     1  C   -0.163424
     2  C    0.019139
     3  C   -0.061630
     4  C   -0.096574
     5  C   -0.085846
     6  C    0.152418
     7  H    0.107662
     8  H    0.102866
     9  H    0.106550
    10  H    0.105911
    11  C    0.404193
    12  O   -0.456823
    13  H    0.007637
    14  Cl  -0.142078
 Sum of ESP charges =   0.00000

 Summary of Natural Population Analysis:

                                       Natural Population
                Natural  -----------------------------------------------
    Atom  No    Charge         Core      Valence    Rydberg      Total
 -----------------------------------------------------------------------
      C    1   -0.18877      1.99890     4.17184    0.01803     6.18877
      C    2   -0.15067      1.99897     4.13490    0.01680     6.15067
      C    3   -0.15610      1.99907     4.13921    0.01782     6.15610
      C    4   -0.18612      1.99916     4.16968    0.01728     6.18612
      C    5   -0.19672      1.99897     4.17915    0.01860     6.19672
      C    6   -0.04325      1.99858     4.02116    0.02351     6.04325
      H    7    0.22620      0.00000     0.77163    0.00217     0.77380
      H    8    0.23224      0.00000     0.76576    0.00201     0.76776
      H    9    0.21623      0.00000     0.78226    0.00151     0.78377
      H   10    0.22659      0.00000     0.77186    0.00156     0.77341
      C   11    0.42022      1.99938     3.54091    0.03949     5.57978
      O   12   -0.52136      1.99977     6.50763    0.01396     8.52136
      H   13    0.11091      0.00000     0.88581    0.00329     0.88909
     Cl   14    0.01060      9.99962     6.97009    0.01970    16.98940
 =======================================================================
   * Total *    0.00000     25.99242    45.81187    0.19571    72.00000

                      1                      2                      3
                      A                      A                      A
 Frequencies --     98.9514               176.5879               198.4101
 Red. masses --      6.2651                 8.7899                 4.8427
 Frc consts  --      0.0361                 0.1615                 0.1123
 IR Inten    --      6.9999                 7.0995                 0.3324

                      4                      5                      6
                      A                      A                      A
 Frequencies --    235.4104               300.8849               398.5629
 Red. masses --      2.4522                 7.0529                10.9956
 Frc consts  --      0.0801                 0.3762                 1.0291
 IR Inten    --      9.7006                 3.3529                 3.9970

                      7                      8                      9
                      A                      A                      A
 Frequencies --    437.3746               455.9892               531.6989
 Red. masses --      3.0047                 6.6028                 4.2533
 Frc consts  --      0.3387                 0.8089                 0.7085
 IR Inten    --      2.4480                 0.9508                 0.0068

                     10                     11                     12
                      A                      A                      A
 Frequencies --    659.8581               691.1102               732.4036
 Red. masses --      6.6861                 2.4375                 7.1362
 Frc consts  --      1.7152                 0.6859                 2.2554
 IR Inten    --      7.6373                17.3624                63.5426

                     13                     14                     15
                      A                      A                      A
 Frequencies --    806.3202               872.9430               903.0461
 Red. masses --      1.3787                 4.9635                 1.3639
 Frc consts  --      0.5281                 2.2285                 0.6553
 IR Inten    --     41.4052                32.8199                 9.7650

                     16                     17                     18
                      A                      A                      A
 Frequencies --    939.6815              1007.3992              1013.6147
 Red. masses --      1.3579                 1.3516                 6.1161
 Frc consts  --      0.7065                 0.8082                 3.7023
 IR Inten    --      0.0362                 0.0039                 1.6345

                     19                     20                     21
                      A                      A                      A
 Frequencies --   1028.9974              1091.4478              1118.0205
 Red. masses --      1.7926                 1.9382                 1.5695
 Frc consts  --      1.1183                 1.3604                 1.1559
 IR Inten    --      1.7146                18.3216                 8.5161

                     22                     23                     24
                      A                      A                      A
 Frequencies --   1183.9317              1212.3213              1308.7364
 Red. masses --      1.1855                 2.7710                 1.7682
 Frc consts  --      0.9790                 2.3995                 1.7844
 IR Inten    --     23.0991               120.2647                20.2532

                     25                     26                     27
                      A                      A                      A
 Frequencies --   1342.0940              1404.6543              1456.1777
 Red. masses --      3.4746                 1.4265                 2.2214
 Frc consts  --      3.6874                 1.6583                 2.7753
 IR Inten    --      3.9227                11.2989                11.7967

                     28                     29                     30
                      A                      A                      A
 Frequencies --   1504.5806              1609.6121              1629.1084
 Red. masses --      2.3090                 6.0012                 5.8679
 Frc consts  --      3.0797                 9.1607                 9.1755
 IR Inten    --     13.2870                57.0880                 9.6595

                     31                     32                     33
                      A                      A                      A
 Frequencies --   1772.9001              2896.1682              3179.7211
 Red. masses --     10.3608                 1.0836                 1.0881
 Frc consts  --     19.1873                 5.3550                 6.4820
 IR Inten    --    306.2329               102.8943                 4.8868

                     34                     35                     36
                      A                      A                      A
 Frequencies --   3183.5793              3199.3474              3204.2567
 Red. masses --      1.0911                 1.0915                 1.0962
 Frc consts  --      6.5157                 6.5828                 6.6312
 IR Inten    --      0.1546                 0.1901                 3.7248

 - Thermochemistry -
 -------------------
 Temperature   298.150 Kelvin.  Pressure   1.00000 Atm.
 Atom     1 has atomic number  6 and mass  12.00000

 Molecular mass:   140.00289 amu.
 Principal axes and moments of inertia in atomic units:
                           1         2         3
     Eigenvalues --   570.789072236.299562807.08858
           X            0.99992  -0.01243   0.00000
           Y            0.01243   0.99992   0.00002
           Z            0.00000  -0.00002   1.00000
 This molecule is an asymmetric top.
 Rotational symmetry number  1.
 Warning -- assumption of classical behavior for rotation
           may cause significant error
 Rotational temperatures (Kelvin)      0.15174     0.03873     0.03086
 Rotational constants (GHZ):           3.16184     0.80702     0.64292
 Zero-point vibrational energy     261897.9 (Joules/Mol)
                                   62.59509 (Kcal/Mol)
 Warning -- explicit consideration of   9 degrees of freedom as
           vibrations may cause significant error
 Vibrational temperatures:    142.37   254.07   285.47   338.70   432.91
          (Kelvin)            573.44   629.28   656.07   765.00   949.39
                              994.35  1053.76  1160.11  1255.97  1299.28
                             1351.99  1449.42  1458.36  1480.50  1570.35
                             1608.58  1703.41  1744.26  1882.98  1930.97
                             2020.98  2095.11  2164.75  2315.87  2343.92
                             2550.80  4166.93  4574.90  4580.45  4603.14
                             4610.20

 Zero-point correction=                           0.099752 (Hartree/Particle)
 Thermal correction to Energy=                    0.107270
 Thermal correction to Enthalpy=                  0.108214
 Thermal correction to Gibbs Free Energy=         0.066915
 Sum of electronic and zero-point Energies=           -805.190682
 Sum of electronic and thermal Energies=              -805.183164
 Sum of electronic and thermal Enthalpies=            -805.182220
 Sum of electronic and thermal Free Energies=         -805.223519

                     E (Thermal)             CV                S
                      KCal/Mol        Cal/Mol-Kelvin    Cal/Mol-Kelvin
 Total                   67.313             27.826             86.921
 Electronic               0.000              0.000              0.000
 Translational            0.889              2.981             40.721
 Rotational               0.889              2.981             29.662
 Vibrational             65.535             21.864             16.538
 Vibration     1          0.604              1.950              3.475
 Vibration     2          0.628              1.871              2.364
 Vibration     3          0.637              1.842              2.148
 Vibration     4          0.655              1.787              1.837
 Vibration     5          0.693              1.672              1.412
 Vibration     6          0.765              1.473              0.968
 Vibration     7          0.798              1.389              0.835
 Vibration     8          0.814              1.348              0.778
 Vibration     9          0.887              1.180              0.583

 Optimization completed.
    -- Stationary point found.
 Normal termination of Gaussian 09 at Tue Apr 23 12:09:59 2024.
