 Gaussian 09, Revision D.01,
 Gaussian 09:  ES64L-G09RevD.01 24-Apr-2013

 ----------------------------------------------------------------------
 # opt freq=noraman b3lyp/6-311+g(d,p) pop=(npa,hirshfeld,chelpg,mbs) g
 eom=connectivity
 ----------------------------------------------------------------------

 -------------------
 Title Card Required
 -------------------
 Symbolic Z-matrix:
 Charge =  0 Multiplicity = 1

 SCF Done:  E(RB3LYP) =  -970.714085492     A.U. after   16 cycles
 SCF Done:  E(RB3LYP) =  -970.742379242     A.U. after   14 cycles
 SCF Done:  E(RB3LYP) =  -970.750822568     A.U. after   16 cycles
 SCF Done:  E(RB3LYP) =  -970.755118988     A.U. after   13 cycles
 SCF Done:  E(RB3LYP) =  -970.756563909     A.U. after   16 cycles
 SCF Done:  E(RB3LYP) =  -970.761204482     A.U. after   12 cycles
 SCF Done:  E(RB3LYP) =  -970.763634849     A.U. after   13 cycles
 SCF Done:  E(RB3LYP) =  -970.764717972     A.U. after   16 cycles
 SCF Done:  E(RB3LYP) =  -970.765863453     A.U. after   16 cycles
 SCF Done:  E(RB3LYP) =  -970.699188922     A.U. after   14 cycles
 SCF Done:  E(RB3LYP) =  -970.772182834     A.U. after   11 cycles
 SCF Done:  E(RB3LYP) =  -970.772052348     A.U. after   14 cycles
 SCF Done:  E(RB3LYP) =  -970.772558879     A.U. after   14 cycles
 SCF Done:  E(RB3LYP) =  -970.772619890     A.U. after   11 cycles
 SCF Done:  E(RB3LYP) =  -970.772634354     A.U. after   11 cycles
 SCF Done:  E(RB3LYP) =  -970.772641006     A.U. after   11 cycles
 SCF Done:  E(RB3LYP) =  -970.772643593     A.U. after   10 cycles
 SCF Done:  E(RB3LYP) =  -970.772644510     A.U. after   10 cycles
 SCF Done:  E(RB3LYP) =  -970.772644610     A.U. after    8 cycles
 Optimization completed.
    -- Stationary point found.
 Normal termination of Gaussian 09 at Tue Apr 23 14:30:45 2024.

 ----------------------------------------------------------------------
 #N Geom=AllCheck Guess=TCheck SCRF=Check GenChk RB3LYP/6-311+G(d,p) Fr
 eq
 ----------------------------------------------------------------------

 Structure from the checkpoint file:  "78.chk"
 -------------------
 Title Card Required
 -------------------
 Charge =  0 Multiplicity = 1

                         Standard orientation:
 ---------------------------------------------------------------------
 Center     Atomic      Atomic             Coordinates (Angstroms)
 Number     Number       Type             X           Y           Z
 ---------------------------------------------------------------------
      1          6           0        2.542017   -1.366268   -0.026639
      2          6           0        1.171455   -1.571392   -0.017542
      3          6           0        0.283009   -0.483994   -0.017600
      4          6           0        0.798477    0.819707   -0.030266
      5          6           0        2.174871    1.014417   -0.039142
      6          6           0        3.054074   -0.067728   -0.040284
      7          1           0        3.212798   -2.216201   -0.031289
      8          1           0        0.782626   -2.584480   -0.012522
      9          1           0        0.124422    1.662026   -0.034730
     10          1           0        2.564179    2.024878   -0.053173
     11          7           0       -1.088048   -0.775860   -0.008738
     12          1           0       -1.345559   -1.751505   -0.001346
     13          6           0       -2.154373    0.100529   -0.006625
     14          8           0       -2.075415    1.308419   -0.014020
     15          8           0       -3.290434   -0.629294    0.005015
     16          6           0       -4.626288    0.013938    0.010758
     17          6           0       -4.795844    0.850677    1.280614
     18          1           0       -4.606706    0.240467    2.167530
     19          1           0       -4.122435    1.706387    1.288892
     20          1           0       -5.824538    1.216911    1.335960
     21          6           0       -4.813212    0.837845   -1.265042
     22          1           0       -4.635380    0.218822   -2.148201
     23          1           0       -5.842882    1.202722   -1.310424
     24          1           0       -4.140647    1.693873   -1.290975
     25          6           0       -5.567697   -1.190032    0.023251
     26          1           0       -6.605711   -0.849583    0.028885
     27          1           0       -5.411850   -1.810870   -0.861665
     28          1           0       -5.399375   -1.802143    0.911956
     29          6           0        4.535509    0.158736    0.007558
     30          9           0        5.227488   -0.836106   -0.597427
     31          9           0        4.899718    1.316958   -0.589593
     32          9           0        5.004150    0.224493    1.283693
 ---------------------------------------------------------------------

 SCF Done:  E(RB3LYP) =  -970.772644610     A.U. after    1 cycles

 The electronic state is 1-A.
 Alpha  occ. eigenvalues --  -24.71176 -24.71170 -24.70602 -19.17371 -19.11609
 Alpha  occ. eigenvalues --  -14.37396 -10.42898 -10.34260 -10.26001 -10.24900
 Alpha  occ. eigenvalues --  -10.20603 -10.20293 -10.19990 -10.19891 -10.18899
 Alpha  occ. eigenvalues --  -10.17653 -10.17127 -10.17126  -1.31548  -1.23005
 Alpha  occ. eigenvalues --   -1.22379  -1.12381  -1.03706  -0.97039  -0.88277
 Alpha  occ. eigenvalues --   -0.83010  -0.79265  -0.77517  -0.71853  -0.70982
 Alpha  occ. eigenvalues --   -0.70843  -0.67065  -0.64988  -0.62338  -0.59904
 Alpha  occ. eigenvalues --   -0.59366  -0.57958  -0.57833  -0.55232  -0.52641
 Alpha  occ. eigenvalues --   -0.49454  -0.48770  -0.48012  -0.47752  -0.46917
 Alpha  occ. eigenvalues --   -0.46829  -0.45933  -0.45909  -0.44926  -0.44217
 Alpha  occ. eigenvalues --   -0.43560  -0.43038  -0.42609  -0.41506  -0.41316
 Alpha  occ. eigenvalues --   -0.40690  -0.39556  -0.38483  -0.38367  -0.37531
 Alpha  occ. eigenvalues --   -0.37405  -0.36868  -0.35417  -0.33809  -0.31825
 Alpha  occ. eigenvalues --   -0.29507  -0.27983  -0.24698
 Alpha virt. eigenvalues --   -0.04314  -0.03489  -0.01356   0.00095   0.01491
 Alpha virt. eigenvalues --    0.01920   0.02270   0.02629   0.03092   0.03706
 Alpha virt. eigenvalues --    0.04057   0.04497   0.04704   0.05298   0.05368

 Mulliken charges:
               1
     1  C   -0.338075
     2  C   -0.345313
     3  C   -0.048676
     4  C    0.111249
     5  C   -0.157825
     6  C   -0.470280
     7  H    0.143011
     8  H    0.109343
     9  H    0.170088
    10  H    0.144045
    11  N   -0.325575
    12  H    0.299004
    13  C    0.209905
    14  O   -0.274804
    15  O    0.044598
    16  C   -0.304824
    17  C   -0.343557
    18  H    0.150778
    19  H    0.182938
    20  H    0.142361
    21  C   -0.343283
    22  H    0.150757
    23  H    0.142330
    24  H    0.182877
    25  C   -0.366061
    26  H    0.148129
    27  H    0.152629
    28  H    0.152684
    29  C    1.001069
    30  F   -0.120197
    31  F   -0.119155
    32  F   -0.080170
 Sum of Mulliken charges =   0.00000

 Dipole moment (field-independent basis, Debye):
    X=             -5.2306    Y=             -2.4031    Z=             -0.0804  Tot=              5.7568
 Quadrupole moment (field-independent basis, Debye-Ang):
   XX=           -109.5729   YY=           -100.9213   ZZ=           -108.4132
   XY=              0.3614   XZ=             -0.5389   YZ=             -0.0329

  Exact polarizability: 231.267  -1.026 149.642  -0.172  -0.171 109.737
 Approx polarizability: 285.178  -0.554 250.968  -0.628  -0.528 160.562

 ESP charges:
               1
     1  C   -0.020427
     2  C   -0.308176
     3  C    0.519957
     4  C   -0.279282
     5  C   -0.017108
     6  C   -0.163553
     7  H    0.110271
     8  H    0.139913
     9  H    0.160941
    10  H    0.107361
    11  N   -0.830279
    12  H    0.400427
    13  C    1.025927
    14  O   -0.594438
    15  O   -0.651566
    16  C    0.806475
    17  C   -0.352313
    18  H    0.068890
    19  H    0.089720
    20  H    0.066727
    21  C   -0.365700
    22  H    0.072503
    23  H    0.070196
    24  H    0.092241
    25  C   -0.377607
    26  H    0.073173
    27  H    0.091342
    28  H    0.091081
    29  C    0.743387
    30  F   -0.255110
    31  F   -0.252251
    32  F   -0.262722
 Sum of ESP charges =   0.00000

 Summary of Natural Population Analysis:

                                       Natural Population
                Natural  -----------------------------------------------
    Atom  No    Charge         Core      Valence    Rydberg      Total
 -----------------------------------------------------------------------
      C    1   -0.16132      1.99909     4.14497    0.01726     6.16132
      C    2   -0.23192      1.99909     4.21651    0.01632     6.23192
      C    3    0.18096      1.99898     3.80022    0.01984     5.81904
      C    4   -0.23265      1.99907     4.21738    0.01620     6.23265
      C    5   -0.15311      1.99909     4.13721    0.01681     6.15311
      C    6   -0.17547      1.99888     4.15884    0.01776     6.17547
      H    7    0.22525      0.00000     0.77309    0.00167     0.77475
      H    8    0.20632      0.00000     0.79178    0.00190     0.79368
      H    9    0.25163      0.00000     0.74651    0.00186     0.74837
      H   10    0.22505      0.00000     0.77332    0.00162     0.77495
      N   11   -0.61579      1.99926     5.60186    0.01467     7.61579
      H   12    0.40606      0.00000     0.59196    0.00198     0.59394
      C   13    0.93468      1.99943     3.01607    0.04982     5.06532
      O   14   -0.64269      1.99973     6.63233    0.01063     8.64269
      O   15   -0.60518      1.99970     6.58621    0.01927     8.60518
      C   16    0.27612      1.99911     3.70390    0.02087     5.72388
      C   17   -0.60651      1.99923     4.59583    0.01145     6.60651
      H   18    0.20704      0.00000     0.79163    0.00132     0.79296
      H   19    0.23086      0.00000     0.76773    0.00141     0.76914
      H   20    0.20843      0.00000     0.79043    0.00113     0.79157
      C   21   -0.60653      1.99923     4.59584    0.01145     6.60653
      H   22    0.20702      0.00000     0.79166    0.00132     0.79298
      H   23    0.20843      0.00000     0.79044    0.00113     0.79157
      H   24    0.23088      0.00000     0.76771    0.00141     0.76912
      C   25   -0.58234      1.99924     4.57092    0.01217     6.58234
      H   26    0.20755      0.00000     0.79139    0.00106     0.79245
      H   27    0.20950      0.00000     0.78913    0.00137     0.79050
      H   28    0.20953      0.00000     0.78910    0.00137     0.79047
      C   29    1.06848      1.99909     2.87219    0.06024     4.93152
      F   30   -0.36043      1.99992     7.35402    0.00649     9.36043
      F   31   -0.35858      1.99992     7.35218    0.00649     9.35858
      F   32   -0.36126      1.99992     7.35493    0.00641     9.36126
 =======================================================================
   * Total *    0.00000     35.98798    99.65731    0.35471   136.00000

                      1                      2                      3
                      A                      A                      A
 Frequencies --     17.9739                27.0941                38.6152
 Red. masses --      8.0027                 5.7723                 3.4127
 Frc consts  --      0.0015                 0.0025                 0.0030
 IR Inten    --      0.1730                 0.2439                 0.0280

                      4                      5                      6
                      A                      A                      A
 Frequencies --     65.3190                71.9148               102.9948
 Red. masses --      6.0547                 5.4682                 5.0595
 Frc consts  --      0.0152                 0.0167                 0.0316
 IR Inten    --      3.9710                 0.0028                 1.2072

                      7                      8                      9
                      A                      A                      A
 Frequencies --    123.1989               161.4240               189.6527
 Red. masses --      5.3141                 6.3488                 6.2765
 Frc consts  --      0.0475                 0.0975                 0.1330
 IR Inten    --      0.0534                 2.9707                 0.3101

                     10                     11                     12
                      A                      A                      A
 Frequencies --    201.7168               236.3667               240.3845
 Red. masses --      1.0810                 4.7402                 6.9896
 Frc consts  --      0.0259                 0.1560                 0.2380
 IR Inten    --      0.1397                 7.7743                 0.0190

                     13                     14                     15
                      A                      A                      A
 Frequencies --    247.1696               269.1848               324.9088
 Red. masses --      1.0591                 1.0628                 3.1668
 Frc consts  --      0.0381                 0.0454                 0.1970
 IR Inten    --      0.0027                 0.0814                 6.6612

                     16                     17                     18
                      A                      A                      A
 Frequencies --    336.8668               347.5132               373.1737
 Red. masses --      5.6436                 2.5261                 7.4481
 Frc consts  --      0.3773                 0.1797                 0.6111
 IR Inten    --      0.3478                 1.1039                18.6473

                     19                     20                     21
                      A                      A                      A
 Frequencies --    408.6055               411.3865               419.7374
 Red. masses --      5.6213                 6.4590                 3.3077
 Frc consts  --      0.5530                 0.6440                 0.3433
 IR Inten    --      3.6887                 1.4996                 0.7363

                     22                     23                     24
                      A                      A                      A
 Frequencies --    433.0560               456.1036               477.8621
 Red. masses --      3.1177                 2.8963                 2.8130
 Frc consts  --      0.3445                 0.3550                 0.3785
 IR Inten    --      1.6370                 3.1479                 0.1891

                     25                     26                     27
                      A                      A                      A
 Frequencies --    511.7922               567.3818               569.8323
 Red. masses --      4.5783                 1.1609                12.2239
 Frc consts  --      0.7065                 0.2202                 2.3386
 IR Inten    --      5.6011                49.9542                 0.2169

                     28                     29                     30
                      A                      A                      A
 Frequencies --    594.1035               636.6905               647.2837
 Red. masses --      3.3564                 6.6182                 7.1567
 Frc consts  --      0.6980                 1.5807                 1.7667
 IR Inten    --     28.6586                28.2374                 0.1958

                     31                     32                     33
                      A                      A                      A
 Frequencies --    734.1223               744.8435               769.2545
 Red. masses --      7.8541                 4.2170                 6.9231
 Frc consts  --      2.4939                 1.3784                 2.4137
 IR Inten    --      1.7668                 2.1687                 4.5545

                     34                     35                     36
                      A                      A                      A
 Frequencies --    771.0392               781.6928               832.0722
 Red. masses --     11.3771                 6.1169                 1.3945
 Frc consts  --      3.9850                 2.2022                 0.5688
 IR Inten    --     17.6517                 2.8760                26.0536

                     37                     38                     39
                      A                      A                      A
 Frequencies --    834.8758               868.7374               906.7451
 Red. masses --      3.7457                 1.4799                 5.2402
 Frc consts  --      1.5382                 0.6580                 2.5385
 IR Inten    --     23.9785                50.8246                15.5522

                     40                     41                     42
                      A                      A                      A
 Frequencies --    924.9555               928.0956               965.2787
 Red. masses --      1.6411                 1.6420                 1.3359
 Frc consts  --      0.8272                 0.8333                 0.7334
 IR Inten    --      0.0284                 0.2240                 1.9034

                     43                     44                     45
                      A                      A                      A
 Frequencies --    970.2116               998.3165              1026.0014
 Red. masses --      1.2017                 1.3277                 3.9020
 Frc consts  --      0.6664                 0.7796                 2.4201
 IR Inten    --      0.0774                 0.1347                51.0745

                     46                     47                     48
                      A                      A                      A
 Frequencies --   1041.9263              1050.4668              1066.8659
 Red. masses --      2.5723                 1.4117                 2.3747
 Frc consts  --      1.6453                 0.9178                 1.5925
 IR Inten    --     32.4370                 0.7549                 9.2232

                     49                     50                     51
                      A                      A                      A
 Frequencies --   1077.0890              1097.0411              1120.1089
 Red. masses --      3.6155                 9.3841                 4.0976
 Frc consts  --      2.4713                 6.6541                 3.0290
 IR Inten    --    370.7516               262.0690               197.6429

                     52                     53                     54
                      A                      A                      A
 Frequencies --   1165.2850              1176.1507              1209.1210
 Red. masses --      1.6857                 2.4053                 1.1720
 Frc consts  --      1.3487                 1.9604                 1.0095
 IR Inten    --     92.1049               854.8127                30.4008

                     55                     56                     57
                      A                      A                      A
 Frequencies --   1238.6750              1266.3567              1278.7877
 Red. masses --      2.3457                 2.7566                 2.8393
 Frc consts  --      2.1205                 2.6045                 2.7357
 IR Inten    --    209.1429                15.6490                12.7110

                     58                     59                     60
                      A                      A                      A
 Frequencies --   1283.9557              1320.9422              1342.1422
 Red. masses --      3.2438                 5.3741                 1.3926
 Frc consts  --      3.1507                 5.5249                 1.4780
 IR Inten    --     10.2447               497.5360                 6.4653

                     61                     62                     63
                      A                      A                      A
 Frequencies --   1348.8298              1400.6192              1402.2026
 Red. masses --      6.7891                 1.2693                 1.2792
 Frc consts  --      7.2774                 1.4671                 1.4819
 IR Inten    --    111.0146                21.6010                21.4907

                     64                     65                     66
                      A                      A                      A
 Frequencies --   1428.3987              1439.6692              1470.8283
 Red. masses --      1.2347                 2.8649                 1.0452
 Frc consts  --      1.4843                 3.4985                 1.3322
 IR Inten    --     28.8397               118.4588                 0.2228

                     67                     68                     69
                      A                      A                      A
 Frequencies --   1490.2959              1491.5344              1497.0511
 Red. masses --      1.0460                 1.0501                 1.0657
 Frc consts  --      1.3687                 1.3764                 1.4072
 IR Inten    --      0.9832                 1.0446                15.5162

                     70                     71                     72
                      A                      A                      A
 Frequencies --   1504.0570              1525.6015              1538.6414
 Red. masses --      1.0532                 1.0620                 2.0298
 Frc consts  --      1.4037                 1.4564                 2.8313
 IR Inten    --      2.6539                 5.3637               208.1815

                     73                     74                     75
                      A                      A                      A
 Frequencies --   1558.3663              1627.3385              1655.6882
 Red. masses --      2.8185                 4.7959                 5.6167
 Frc consts  --      4.0329                 7.4830                 9.0717
 IR Inten    --    391.3557                82.5598               107.6686

                     76                     77                     78
                      A                      A                      A
 Frequencies --   1779.6380              3035.5252              3035.8722
 Red. masses --      9.8572                 1.0353                 1.0374
 Frc consts  --     18.3936                 5.6205                 5.6335
 IR Inten    --    244.8430                 8.5888                22.9766

                     79                     80                     81
                      A                      A                      A
 Frequencies --   3043.6218              3095.5429              3097.7151
 Red. masses --      1.0374                 1.1019                 1.1018
 Frc consts  --      5.6620                 6.2212                 6.2290
 IR Inten    --     22.6966                 7.1288                17.5633

                     82                     83                     84
                      A                      A                      A
 Frequencies --   3110.5278              3111.7840              3136.5523
 Red. masses --      1.1029                 1.1018                 1.1002
 Frc consts  --      6.2872                 6.2859                 6.3771
 IR Inten    --     28.4895                43.5426                 0.7075

                     85                     86                     87
                      A                      A                      A
 Frequencies --   3139.6537              3163.7401              3196.8594
 Red. masses --      1.0995                 1.0894                 1.0907
 Frc consts  --      6.3859                 6.4247                 6.5675
 IR Inten    --     13.6342                10.2515                 1.2292

                     88                     89                     90
                      A                      A                      A
 Frequencies --   3199.7863              3244.0817              3623.1190
 Red. masses --      1.0932                 1.0925                 1.0766
 Frc consts  --      6.5945                 6.7744                 8.3265
 IR Inten    --      1.8534                 6.1252                38.2671

 - Thermochemistry -
 -------------------
 Temperature   298.150 Kelvin.  Pressure   1.00000 Atm.
 Atom     1 has atomic number  6 and mass  12.00000

 Molecular mass:   261.09766 amu.
 Principal axes and moments of inertia in atomic units:
                           1         2         3
     Eigenvalues --  1208.90965********************
           X            1.00000  -0.00267  -0.00033
           Y            0.00267   1.00000  -0.00046
           Z            0.00033   0.00046   1.00000
 This molecule is an asymmetric top.
 Rotational symmetry number  1.
 Warning -- assumption of classical behavior for rotation
           may cause significant error
 Rotational temperatures (Kelvin)      0.07165     0.00634     0.00613
 Rotational constants (GHZ):           1.49287     0.13215     0.12763
 Zero-point vibrational energy     650132.1 (Joules/Mol)
                                  155.38531 (Kcal/Mol)
 Warning -- explicit consideration of  28 degrees of freedom as
           vibrations may cause significant error
 Vibrational temperatures:     25.86    38.98    55.56    93.98   103.47
          (Kelvin)            148.19   177.26   232.25   272.87   290.23
                              340.08   345.86   355.62   387.30   467.47
                              484.68   499.99   536.91   587.89   591.89
                              603.91   623.07   656.23   687.54   736.35
                              816.33   819.86   854.78   916.05   931.30
                             1056.24  1071.66  1106.78  1109.35  1124.68
                             1197.16  1201.20  1249.92  1304.60  1330.80
                             1335.32  1388.82  1395.92  1436.35  1476.19
                             1499.10  1511.39  1534.98  1549.69  1578.40
                             1611.58  1676.58  1692.22  1739.65  1782.17
                             1822.00  1839.89  1847.32  1900.54  1931.04
                             1940.66  2015.18  2017.45  2055.14  2071.36
                             2116.19  2144.20  2145.98  2153.92  2164.00
                             2195.00  2213.76  2242.14  2341.37  2382.16
                             2560.50  4367.44  4367.94  4379.09  4453.79
                             4456.92  4475.35  4477.16  4512.79  4517.26
                             4551.91  4599.56  4603.77  4667.50  5212.85

 Zero-point correction=                           0.247622 (Hartree/Particle)
 Thermal correction to Energy=                    0.265306
 Thermal correction to Enthalpy=                  0.266251
 Thermal correction to Gibbs Free Energy=         0.199996
 Sum of electronic and zero-point Energies=           -970.525022
 Sum of electronic and thermal Energies=              -970.507338
 Sum of electronic and thermal Enthalpies=            -970.506394
 Sum of electronic and thermal Free Energies=         -970.572649

                     E (Thermal)             CV                S
                      KCal/Mol        Cal/Mol-Kelvin    Cal/Mol-Kelvin
 Total                  166.482             66.357            139.444
 Electronic               0.000              0.000              0.000
 Translational            0.889              2.981             42.579
 Rotational               0.889              2.981             33.812
 Vibrational            164.705             60.396             63.054
 Vibration     1          0.593              1.986              6.846
 Vibration     2          0.593              1.984              6.032
 Vibration     3          0.594              1.981              5.329
 Vibration     4          0.597              1.971              4.290
 Vibration     5          0.598              1.967              4.100
 Vibration     6          0.605              1.947              3.397
 Vibration     7          0.610              1.930              3.050
 Vibration     8          0.622              1.890              2.533
 Vibration     9          0.633              1.854              2.231
 Vibration    10          0.639              1.837              2.117
 Vibration    11          0.655              1.785              1.830
 Vibration    12          0.657              1.779              1.800
 Vibration    13          0.661              1.767              1.751
 Vibration    14          0.674              1.730              1.601
 Vibration    15          0.709              1.626              1.285
 Vibration    16          0.718              1.602              1.227
 Vibration    17          0.725              1.580              1.177
 Vibration    18          0.745              1.527              1.067
 Vibration    19          0.773              1.452              0.932
 Vibration    20          0.775              1.446              0.922
 Vibration    21          0.782              1.427              0.893
 Vibration    22          0.794              1.398              0.849
 Vibration    23          0.814              1.347              0.778
 Vibration    24          0.834              1.299              0.716
 Vibration    25          0.867              1.224              0.629
 Vibration    26          0.923              1.102              0.509
 Vibration    27          0.926              1.097              0.505
 Vibration    28          0.952              1.044              0.460

 Optimization completed.
    -- Stationary point found.
 Normal termination of Gaussian 09 at Tue Apr 23 14:45:19 2024.
