 Gaussian 09, Revision D.01,
 Gaussian 09:  ES64L-G09RevD.01 24-Apr-2013

 ----------------------------------------------------------------------
 # opt=rcfc freq=noraman b3lyp/6-311+g(d,p) pop=(npa,hirshfeld,chelpg,m
 bs) geom=allcheck guess=read
 ----------------------------------------------------------------------

 Structure from the checkpoint file:  "5.chk"
 -------------------
 Title Card Required
 -------------------
 Charge =  0 Multiplicity = 1

 SCF Done:  E(RB3LYP) =  -574.770051547     A.U. after    1 cycles
 SCF Done:  E(RB3LYP) =  -574.770051607     A.U. after    8 cycles
 Optimization completed.
    -- Stationary point found.
 Normal termination of Gaussian 09 at Wed Apr 24 12:48:13 2024.

 ----------------------------------------------------------------------
 #N Geom=AllCheck Guess=TCheck SCRF=Check GenChk RB3LYP/6-311+G(d,p) Fr
 eq
 ----------------------------------------------------------------------

 Structure from the checkpoint file:  "5.chk"
 -------------------
 Title Card Required
 -------------------
 Charge =  0 Multiplicity = 1

                         Standard orientation:
 ---------------------------------------------------------------------
 Center     Atomic      Atomic             Coordinates (Angstroms)
 Number     Number       Type             X           Y           Z
 ---------------------------------------------------------------------
      1          6           0       -0.046592   -0.315127    0.026701
      2          6           0        1.299433    0.084268    0.088347
      3          6           0        1.631375    1.436296   -0.082366
      4          6           0        0.642671    2.378133   -0.318886
      5          6           0       -0.696554    1.983086   -0.364434
      6          6           0       -1.048812    0.649731   -0.180401
      7          1           0        2.677318    1.713706   -0.029923
      8          1           0        0.901821    3.420603   -0.461286
      9          1           0       -1.488913    2.702009   -0.539259
     10          6           0        2.374018   -0.909920    0.330548
     11          8           0        3.553705   -0.628185    0.375013
     12          1           0        2.035569   -1.949752    0.476756
     13          8           0       -2.372618    0.282763   -0.251693
     14          6           0       -2.988771   -0.012143    1.011921
     15          1           0       -2.984966    0.874205    1.654772
     16          1           0       -4.017065   -0.294437    0.789124
     17          1           0       -2.478127   -0.836805    1.515611
     18          8           0       -0.377031   -1.632022    0.224468
     19          6           0       -0.858793   -2.333682   -0.935799
     20          1           0       -1.102279   -3.339955   -0.597627
     21          1           0       -1.747950   -1.850439   -1.345038
     22          1           0       -0.075717   -2.383429   -1.699221
 ---------------------------------------------------------------------

 SCF Done:  E(RB3LYP) =  -574.770051607     A.U. after    2 cycles

 The electronic state is 1-A.
 Alpha  occ. eigenvalues --  -19.16167 -19.15662 -19.12159 -10.26168 -10.25519
 Alpha  occ. eigenvalues --  -10.24746 -10.23223 -10.23024 -10.19789 -10.19777
 Alpha  occ. eigenvalues --  -10.19313 -10.19246  -1.08556  -1.06292  -1.05047
 Alpha  occ. eigenvalues --   -0.87582  -0.78570  -0.77262  -0.72017  -0.69619
 Alpha  occ. eigenvalues --   -0.66727  -0.61400  -0.58164  -0.54459  -0.52730
 Alpha  occ. eigenvalues --   -0.51517  -0.48893  -0.48212  -0.47201  -0.46742
 Alpha  occ. eigenvalues --   -0.45420  -0.44782  -0.43549  -0.41383  -0.39959
 Alpha  occ. eigenvalues --   -0.39612  -0.37759  -0.37235  -0.35291  -0.31877
 Alpha  occ. eigenvalues --   -0.29382  -0.27126  -0.26047  -0.25650
 Alpha virt. eigenvalues --   -0.07783  -0.02778   0.00107   0.00742   0.01143
 Alpha virt. eigenvalues --    0.01936   0.02240   0.02715   0.03763   0.04220
 Alpha virt. eigenvalues --    0.04503   0.04834   0.06274   0.06715   0.07415

 Mulliken charges:
               1
     1  C   -1.437312
     2  C    1.493222
     3  C   -0.478948
     4  C   -0.112898
     5  C    0.018823
     6  C   -0.036648
     7  H    0.156934
     8  H    0.134175
     9  H    0.136293
    10  C    0.116351
    11  O   -0.267694
    12  H    0.120321
    13  O   -0.157299
    14  C   -0.230202
    15  H    0.141546
    16  H    0.154022
    17  H    0.172018
    18  O   -0.170320
    19  C   -0.232667
    20  H    0.155384
    21  H    0.179623
    22  H    0.145275
 Sum of Mulliken charges =   0.00000

 Dipole moment (field-independent basis, Debye):
    X=             -3.8686    Y=              0.2276    Z=             -0.2976  Tot=              3.8867
 Quadrupole moment (field-independent basis, Debye-Ang):
   XX=            -82.0614   YY=            -61.9432   ZZ=            -71.2082
   XY=              3.8619   XZ=             -4.6080   YZ=              2.1893

  Exact polarizability: 148.279  -0.057 131.678   1.731  -3.929  74.875
 Approx polarizability: 227.328  -2.740 200.150   8.702 -12.168 113.227

 ESP charges:
               1
     1  C    0.158676
     2  C   -0.128599
     3  C   -0.086345
     4  C   -0.135613
     5  C   -0.138662
     6  C    0.248527
     7  H    0.123649
     8  H    0.111746
     9  H    0.126203
    10  C    0.558528
    11  O   -0.520910
    12  H   -0.034756
    13  O   -0.410600
    14  C    0.258132
    15  H   -0.023481
    16  H    0.027297
    17  H   -0.019367
    18  O   -0.362185
    19  C    0.261755
    20  H    0.023361
    21  H   -0.011087
    22  H   -0.026270
 Sum of ESP charges =   0.00000

 Summary of Natural Population Analysis:

                                       Natural Population
                Natural  -----------------------------------------------
    Atom  No    Charge         Core      Valence    Rydberg      Total
 -----------------------------------------------------------------------
      C    1    0.31448      1.99861     3.66398    0.02293     5.68552
      C    2   -0.19383      1.99891     4.17795    0.01697     6.19383
      C    3   -0.15400      1.99909     4.13697    0.01793     6.15400
      C    4   -0.20790      1.99917     4.19161    0.01712     6.20790
      C    5   -0.20059      1.99907     4.18395    0.01757     6.20059
      C    6    0.26321      1.99865     3.71427    0.02387     5.73679
      H    7    0.23078      0.00000     0.76705    0.00217     0.76922
      H    8    0.21241      0.00000     0.78608    0.00151     0.78759
      H    9    0.22084      0.00000     0.77740    0.00176     0.77916
      C   10    0.41341      1.99938     3.54772    0.03949     5.58659
      O   11   -0.53582      1.99977     6.52229    0.01376     8.53582
      H   12    0.12953      0.00000     0.86726    0.00321     0.87047
      O   13   -0.58272      1.99973     6.56245    0.02055     8.58272
      C   14   -0.20162      1.99923     4.18704    0.01535     6.20162
      H   15    0.16831      0.00000     0.82958    0.00212     0.83169
      H   16    0.18586      0.00000     0.81298    0.00116     0.81414
      H   17    0.17978      0.00000     0.81780    0.00242     0.82022
      O   18   -0.58092      1.99972     6.56242    0.01878     8.58092
      C   19   -0.20381      1.99923     4.18937    0.01520     6.20381
      H   20    0.18709      0.00000     0.81180    0.00111     0.81291
      H   21    0.18648      0.00000     0.81110    0.00241     0.81352
      H   22    0.16903      0.00000     0.82885    0.00213     0.83097
 =======================================================================
   * Total *    0.00000     23.99057    63.74992    0.25951    88.00000

                      1                      2                      3
                      A                      A                      A
 Frequencies --     65.9607                72.7190                84.5906
 Red. masses --      3.9314                 2.9311                 3.1214
 Frc consts  --      0.0101                 0.0091                 0.0132
 IR Inten    --      1.8538                 3.3543                 4.3892

                      4                      5                      6
                      A                      A                      A
 Frequencies --    132.9062               151.2551               157.9169
 Red. masses --      2.0483                 1.3005                 1.1843
 Frc consts  --      0.0213                 0.0175                 0.0174
 IR Inten    --      4.8491                 1.8308                 0.8904

                      7                      8                      9
                      A                      A                      A
 Frequencies --    171.5146               208.7187               218.8177
 Red. masses --      3.2816                 2.7373                 4.8389
 Frc consts  --      0.0569                 0.0703                 0.1365
 IR Inten    --      2.1868                 8.1581                15.1032

                     10                     11                     12
                      A                      A                      A
 Frequencies --    278.6805               349.0146               377.4717
 Red. masses --      5.0401                 5.3382                 5.0655
 Frc consts  --      0.2306                 0.3831                 0.4252
 IR Inten    --      6.3399                 0.1360                 2.6900

                     13                     14                     15
                      A                      A                      A
 Frequencies --    393.6538               466.0894               544.5136
 Red. masses --      5.9501                 5.7132                 6.3027
 Frc consts  --      0.5433                 0.7312                 1.1010
 IR Inten    --      3.1755                 5.7466                 3.9879

                     16                     17                     18
                      A                      A                      A
 Frequencies --    564.4885               603.7038               625.0537
 Red. masses --      3.8104                 4.3625                 5.1080
 Frc consts  --      0.7154                 0.9368                 1.1758
 IR Inten    --      2.4238                 0.5666                11.4824

                     19                     20                     21
                      A                      A                      A
 Frequencies --    762.3069               776.7953               818.8434
 Red. masses --      4.6709                 2.1416                 4.7373
 Frc consts  --      1.5992                 0.7614                 1.8715
 IR Inten    --     29.9376                37.7979                28.0795

                     22                     23                     24
                      A                      A                      A
 Frequencies --    823.9935               930.1352               944.3431
 Red. masses --      2.3392                 3.7462                 1.5382
 Frc consts  --      0.9358                 1.9096                 0.8082
 IR Inten    --     18.7672                 8.8857                 1.0082

                     25                     26                     27
                      A                      A                      A
 Frequencies --    997.9256              1016.6936              1033.0118
 Red. masses --      1.3432                 7.1622                 1.8520
 Frc consts  --      0.7881                 4.3619                 1.1644
 IR Inten    --      0.3819                78.9722                 2.2298

                     28                     29                     30
                      A                      A                      A
 Frequencies --   1047.0501              1091.2647              1166.6670
 Red. masses --      6.4416                 1.8034                 1.2575
 Frc consts  --      4.1608                 1.2653                 1.0084
 IR Inten    --     90.9693                30.0197                12.5515

                     31                     32                     33
                      A                      A                      A
 Frequencies --   1168.1847              1181.2858              1196.7357
 Red. masses --      1.2530                 1.1785                 1.5660
 Frc consts  --      1.0074                 0.9689                 1.3214
 IR Inten    --      0.1699                 5.7403                16.4929

                     34                     35                     36
                      A                      A                      A
 Frequencies --   1205.9571              1238.5927              1263.2575
 Red. masses --      1.4314                 2.9957                 2.3310
 Frc consts  --      1.2265                 2.7077                 2.1917
 IR Inten    --      4.3095                52.2371               114.8726

                     37                     38                     39
                      A                      A                      A
 Frequencies --   1281.0155              1317.0699              1407.6343
 Red. masses --      3.3242                 7.1553                 1.3537
 Frc consts  --      3.2140                 7.3130                 1.5804
 IR Inten    --    240.0837                 1.9296                54.8984

                     40                     41                     42
                      A                      A                      A
 Frequencies --   1454.8010              1468.3676              1485.8331
 Red. masses --      1.4752                 1.3352                 1.1664
 Frc consts  --      1.8395                 1.6962                 1.5172
 IR Inten    --     30.1636                 1.1546                21.9687

                     43                     44                     45
                      A                      A                      A
 Frequencies --   1487.8362              1491.9164              1502.5236
 Red. masses --      1.0746                 1.5294                 2.0861
 Frc consts  --      1.4015                 2.0057                 2.7748
 IR Inten    --     17.4165                10.8352                49.8531

                     46                     47                     48
                      A                      A                      A
 Frequencies --   1505.9169              1510.5241              1617.1930
 Red. masses --      1.0574                 1.0883                 6.5303
 Frc consts  --      1.4129                 1.4631                10.0625
 IR Inten    --      5.9279                36.7139                 8.0619

                     49                     50                     51
                      A                      A                      A
 Frequencies --   1624.2213              1753.2527              2971.2746
 Red. masses --      6.2013                 9.7439                 1.0851
 Frc consts  --      9.6388                17.6470                 5.6443
 IR Inten    --     59.0434               296.5883                63.0673

                     52                     53                     54
                      A                      A                      A
 Frequencies --   3016.3874              3020.2941              3085.9809
 Red. masses --      1.0340                 1.0352                 1.1033
 Frc consts  --      5.5428                 5.5639                 6.1905
 IR Inten    --     61.7893                48.4215                22.4447

                     55                     56                     57
                      A                      A                      A
 Frequencies --   3095.8874              3132.1365              3137.4151
 Red. masses --      1.1009                 1.1031                 1.1047
 Frc consts  --      6.2168                 6.3763                 6.4068
 IR Inten    --     21.3478                21.9828                15.9917

                     58                     59                     60
                      A                      A                      A
 Frequencies --   3175.9958              3189.4642              3198.9736
 Red. masses --      1.0870                 1.0917                 1.0958
 Frc consts  --      6.4601                 6.5434                 6.6070
 IR Inten    --      4.1439                 2.2666                 7.2232

 - Thermochemistry -
 -------------------
 Temperature   298.150 Kelvin.  Pressure   1.00000 Atm.
 Atom     1 has atomic number  6 and mass  12.00000

 Molecular mass:   166.06299 amu.
 Principal axes and moments of inertia in atomic units:
                           1         2         3
     Eigenvalues --  1293.945532311.215423298.53215
           X            0.99956   0.02657  -0.01293
           Y           -0.02636   0.99953   0.01566
           Z            0.01334  -0.01531   0.99979
 This molecule is an asymmetric top.
 Rotational symmetry number  1.
 Warning -- assumption of classical behavior for rotation
           may cause significant error
 Rotational temperatures (Kelvin)      0.06694     0.03748     0.02626
 Rotational constants (GHZ):           1.39476     0.78086     0.54713
 Zero-point vibrational energy     454952.0 (Joules/Mol)
                                  108.73613 (Kcal/Mol)
 Warning -- explicit consideration of  17 degrees of freedom as
           vibrations may cause significant error
 Vibrational temperatures:     94.90   104.63   121.71   191.22   217.62
          (Kelvin)            227.21   246.77   300.30   314.83   400.96
                              502.15   543.10   566.38   670.60   783.43
                              812.17   868.59   899.31  1096.79  1117.63
                             1178.13  1185.54  1338.26  1358.70  1435.79
                             1462.79  1486.27  1506.47  1570.08  1678.57
                             1680.76  1699.60  1721.83  1735.10  1782.06
                             1817.54  1843.09  1894.97  2025.27  2093.13
                             2112.65  2137.78  2140.66  2146.53  2161.79
                             2166.68  2173.30  2326.78  2336.89  2522.54
                             4275.00  4339.90  4345.52  4440.03  4454.29
                             4506.44  4514.03  4569.54  4588.92  4602.60

 Zero-point correction=                           0.173282 (Hartree/Particle)
 Thermal correction to Energy=                    0.185256
 Thermal correction to Enthalpy=                  0.186200
 Thermal correction to Gibbs Free Energy=         0.134887
 Sum of electronic and zero-point Energies=           -574.596770
 Sum of electronic and thermal Energies=              -574.584796
 Sum of electronic and thermal Enthalpies=            -574.583852
 Sum of electronic and thermal Free Energies=         -574.635165

                     E (Thermal)             CV                S
                      KCal/Mol        Cal/Mol-Kelvin    Cal/Mol-Kelvin
 Total                  116.250             42.791            107.997
 Electronic               0.000              0.000              0.000
 Translational            0.889              2.981             41.230
 Rotational               0.889              2.981             30.668
 Vibrational            114.472             36.829             36.099
 Vibration     1          0.597              1.971              4.270
 Vibration     2          0.599              1.967              4.078
 Vibration     3          0.601              1.960              3.781
 Vibration     4          0.613              1.920              2.904
 Vibration     5          0.619              1.901              2.656
 Vibration     6          0.621              1.894              2.575
 Vibration     7          0.626              1.878              2.419
 Vibration     8          0.642              1.827              2.055
 Vibration     9          0.647              1.812              1.969
 Vibration    10          0.679              1.713              1.542
 Vibration    11          0.726              1.577              1.171
 Vibration    12          0.748              1.518              1.049
 Vibration    13          0.761              1.484              0.986
 Vibration    14          0.823              1.325              0.749
 Vibration    15          0.900              1.152              0.556
 Vibration    16          0.920              1.108              0.515
 Vibration    17          0.962              1.024              0.443

 Optimization completed.
    -- Stationary point found.
 Normal termination of Gaussian 09 at Wed Apr 24 12:51:47 2024.
