 Gaussian 09, Revision D.01,
 Gaussian 09:  ES64L-G09RevD.01 24-Apr-2013

 ----------------------------------------------------------------------
 # opt freq=noraman b3lyp/6-311+g(d,p) pop=(npa,hirshfeld,chelpg,mbs) g
 eom=connectivity
 ----------------------------------------------------------------------

 -------------------
 Title Card Required
 -------------------
 Symbolic Z-matrix:
 Charge =  0 Multiplicity = 1

 SCF Done:  E(RB3LYP) =  -644.697601866     A.U. after   13 cycles
 SCF Done:  E(RB3LYP) =  -644.701864102     A.U. after   12 cycles
 SCF Done:  E(RB3LYP) =  -644.702603255     A.U. after   11 cycles
 SCF Done:  E(RB3LYP) =  -644.702653251     A.U. after   10 cycles
 SCF Done:  E(RB3LYP) =  -644.702656629     A.U. after    9 cycles
 SCF Done:  E(RB3LYP) =  -644.702658173     A.U. after    9 cycles
 SCF Done:  E(RB3LYP) =  -644.684453932     A.U. after   13 cycles
 SCF Done:  E(RB3LYP) =  -644.702658304     A.U. after    6 cycles
 SCF Done:  E(RB3LYP) =  -644.703891433     A.U. after   13 cycles
 SCF Done:  E(RB3LYP) =  -644.708081966     A.U. after   14 cycles
 SCF Done:  E(RB3LYP) =  -644.709219602     A.U. after   11 cycles
 SCF Done:  E(RB3LYP) =  -644.709238161     A.U. after   10 cycles
 SCF Done:  E(RB3LYP) =  -644.709240170     A.U. after   10 cycles
 SCF Done:  E(RB3LYP) =  -644.709241421     A.U. after   10 cycles
 SCF Done:  E(RB3LYP) =  -644.709243909     A.U. after   11 cycles
 SCF Done:  E(RB3LYP) =  -644.709246377     A.U. after   11 cycles
 SCF Done:  E(RB3LYP) =  -644.709247601     A.U. after   10 cycles
 SCF Done:  E(RB3LYP) =  -644.709247617     A.U. after    8 cycles
 SCF Done:  E(RB3LYP) =  -644.709247648     A.U. after    9 cycles
 Optimization completed on the basis of negligible forces.
    -- Stationary point found.
 Normal termination of Gaussian 09 at Tue Apr 23 11:54:44 2024.

 ----------------------------------------------------------------------
 #N Geom=AllCheck Guess=TCheck SCRF=Check GenChk RB3LYP/6-311+G(d,p) Fr
 eq
 ----------------------------------------------------------------------

 Structure from the checkpoint file:  "27.chk"
 -------------------
 Title Card Required
 -------------------
 Charge =  0 Multiplicity = 1

                         Standard orientation:
 ---------------------------------------------------------------------
 Center     Atomic      Atomic             Coordinates (Angstroms)
 Number     Number       Type             X           Y           Z
 ---------------------------------------------------------------------
      1          6           0       -0.368119    0.006056   -0.035112
      2          6           0        0.326783   -1.207379   -0.023679
      3          6           0        1.713162   -1.221947   -0.005973
      4          6           0        2.419156   -0.015778    0.003691
      5          6           0        1.730258    1.198793   -0.006692
      6          6           0        0.339484    1.206641   -0.023563
      7          1           0       -0.218717   -2.143026   -0.036147
      8          1           0        2.277289    2.136441   -0.003708
      9          1           0       -0.192224    2.149487   -0.035644
     10          8           0        3.780036   -0.090560    0.019258
     11          1           0        4.161152    0.794062    0.025024
     12          1           0        2.264240   -2.154005   -0.001862
     13          6           0       -1.867388    0.006960   -0.001826
     14          9           0       -2.393190    1.164979   -0.463441
     15          9           0       -2.353208   -0.158838    1.258027
     16          9           0       -2.397162   -0.994870   -0.743787
 ---------------------------------------------------------------------

 SCF Done:  E(RB3LYP) =  -644.709247648     A.U. after    1 cycles

 The electronic state is 1-A.
 Alpha  occ. eigenvalues --  -24.71577 -24.71383 -24.70917 -19.18062 -10.43231
 Alpha  occ. eigenvalues --  -10.26546 -10.21002 -10.20848 -10.20661 -10.20202
 Alpha  occ. eigenvalues --  -10.19626  -1.31869  -1.23323  -1.22696  -1.09308
 Alpha  occ. eigenvalues --   -0.88986  -0.79815  -0.78173  -0.71296  -0.65965
 Alpha  occ. eigenvalues --   -0.64217  -0.59819  -0.59676  -0.58405  -0.57392
 Alpha  occ. eigenvalues --   -0.50700  -0.48271  -0.47534  -0.47292  -0.45692
 Alpha  occ. eigenvalues --   -0.45422  -0.44296  -0.43453  -0.43313  -0.41638
 Alpha  occ. eigenvalues --   -0.41394  -0.38781  -0.37158  -0.36800  -0.28581
 Alpha  occ. eigenvalues --   -0.25840
 Alpha virt. eigenvalues --   -0.04091  -0.03770  -0.01723   0.00720   0.01768
 Alpha virt. eigenvalues --    0.03535   0.04313   0.04425   0.05385   0.07005
 Alpha virt. eigenvalues --    0.07188   0.07764   0.08098   0.09936   0.10189

 Mulliken charges:
               1
     1  C   -0.053329
     2  C   -0.190859
     3  C    0.277891
     4  C   -0.333725
     5  C    0.173200
     6  C   -0.509594
     7  H    0.146848
     8  H    0.114688
     9  H    0.145609
    10  O   -0.253432
    11  H    0.253182
    12  H    0.139151
    13  C    0.422507
    14  F   -0.137246
    15  F   -0.080154
    16  F   -0.114737
 Sum of Mulliken charges =   0.00000

 Dipole moment (field-independent basis, Debye):
    X=              3.2990    Y=              1.3995    Z=             -0.0726  Tot=              3.5843
 Quadrupole moment (field-independent basis, Debye-Ang):
   XX=            -63.0557   YY=            -55.0927   ZZ=            -65.9331
   XY=              6.5754   XZ=              0.2089   YZ=              0.0467

  Exact polarizability: 112.353   1.392  89.736   0.305  -0.003  53.350
 Approx polarizability: 167.335   1.146 148.379   1.008  -0.012  79.235

 ESP charges:
               1
     1  C   -0.160362
     2  C   -0.038974
     3  C   -0.233867
     4  C    0.468113
     5  C   -0.324497
     6  C    0.009717
     7  H    0.109568
     8  H    0.133573
     9  H    0.105611
    10  O   -0.620580
    11  H    0.427157
    12  H    0.155830
    13  C    0.724128
    14  F   -0.249340
    15  F   -0.257395
    16  F   -0.248683
 Sum of ESP charges =   0.00000

 Summary of Natural Population Analysis:

                                       Natural Population
                Natural  -----------------------------------------------
    Atom  No    Charge         Core      Valence    Rydberg      Total
 -----------------------------------------------------------------------
      C    1   -0.18053      1.99888     4.16398    0.01767     6.18053
      C    2   -0.15377      1.99910     4.13777    0.01691     6.15377
      C    3   -0.24545      1.99906     4.22849    0.01790     6.24545
      C    4    0.33236      1.99880     3.64488    0.02397     5.66764
      C    5   -0.27943      1.99906     4.26277    0.01759     6.27943
      C    6   -0.15541      1.99910     4.13909    0.01723     6.15541
      H    7    0.22510      0.00000     0.77323    0.00167     0.77490
      H    8    0.20866      0.00000     0.78940    0.00194     0.79134
      H    9    0.22677      0.00000     0.77151    0.00172     0.77323
      O   10   -0.66631      1.99975     6.65408    0.01249     8.66631
      H   11    0.47258      0.00000     0.52311    0.00431     0.52742
      H   12    0.22623      0.00000     0.77210    0.00167     0.77377
      C   13    1.06881      1.99909     2.87162    0.06048     4.93119
      F   14   -0.35945      1.99992     7.35307    0.00646     9.35945
      F   15   -0.36080      1.99992     7.35444    0.00644     9.36080
      F   16   -0.35934      1.99992     7.35289    0.00653     9.35934
 =======================================================================
   * Total *    0.00000     21.99260    59.79243    0.21497    82.00000

                      1                      2                      3
                      A                      A                      A
 Frequencies --     18.9181                94.7272               176.5319
 Red. masses --      5.9935                 8.8369                 8.6357
 Frc consts  --      0.0013                 0.0467                 0.1586
 IR Inten    --      0.3984                 0.0811                 1.0578

                      4                      5                      6
                      A                      A                      A
 Frequencies --    230.4229               309.7525               336.7192
 Red. masses --      7.2078                10.9194                 1.1146
 Frc consts  --      0.2255                 0.6173                 0.0745
 IR Inten    --      0.2892                 2.5181               114.5766

                      7                      8                      9
                      A                      A                      A
 Frequencies --    367.4343               406.3263               418.6205
 Red. masses --      8.3245                 7.2833                 3.1732
 Frc consts  --      0.6622                 0.7085                 0.3276
 IR Inten    --      5.7192                 1.3564                 0.7456

                     10                     11                     12
                      A                      A                      A
 Frequencies --    437.1216               509.6705               570.0352
 Red. masses --      4.6480                 4.1864                11.8459
 Frc consts  --      0.5233                 0.6407                 2.2679
 IR Inten    --      5.9862                 7.3261                 0.3511

                     13                     14                     15
                      A                      A                      A
 Frequencies --    586.3538               604.6451               651.0896
 Red. masses --      3.7968                 8.3110                 7.1441
 Frc consts  --      0.7691                 1.7902                 1.7843
 IR Inten    --     14.4905                34.8192                 1.4269

                     16                     17                     18
                      A                      A                      A
 Frequencies --    731.9225               744.5849               818.9866
 Red. masses --      4.5399                11.7080                 1.3077
 Frc consts  --      1.4329                 3.8244                 0.5168
 IR Inten    --      1.4096                 0.4061                15.3800

                     19                     20                     21
                      A                      A                      A
 Frequencies --    845.1009               850.4735               954.8520
 Red. masses --      6.4406                 1.6304                 1.3224
 Frc consts  --      2.7101                 0.6948                 0.7104
 IR Inten    --      4.6477                59.1570                 4.9001

                     22                     23                     24
                      A                      A                      A
 Frequencies --    980.1335              1025.4040              1072.4559
 Red. masses --      1.3410                 3.3905                 4.0328
 Frc consts  --      0.7590                 2.1004                 2.7328
 IR Inten    --      0.1305                19.0721               133.1638

                     25                     26                     27
                      A                      A                      A
 Frequencies --   1097.8653              1108.8316              1155.2130
 Red. masses --     10.6337                 2.6414                 2.1479
 Frc consts  --      7.5515                 1.9135                 1.6888
 IR Inten    --    272.2949               170.0270                73.7994

                     28                     29                     30
                      A                      A                      A
 Frequencies --   1189.2652              1197.0623              1290.2768
 Red. masses --      1.3874                 1.1307                 3.9591
 Frc consts  --      1.1561                 0.9546                 3.8834
 IR Inten    --    219.3574                17.5289               148.3004

                     31                     32                     33
                      A                      A                      A
 Frequencies --   1320.0667              1339.8844              1368.3119
 Red. masses --      4.5228                 1.8600                 2.5740
 Frc consts  --      4.6436                 1.9675                 2.8394
 IR Inten    --    350.7956                14.3835                20.9647

                     34                     35                     36
                      A                      A                      A
 Frequencies --   1467.0545              1550.2489              1633.7914
 Red. masses --      2.9489                 2.7542                 6.1949
 Frc consts  --      3.7394                 3.8999                 9.7427
 IR Inten    --     17.3838                36.1227                31.4536

                     37                     38                     39
                      A                      A                      A
 Frequencies --   1656.2926              3160.8630              3190.1223
 Red. masses --      5.8959                 1.0900                 1.0885
 Frc consts  --      9.5296                 6.4162                 6.5265
 IR Inten    --    103.5186                10.9810                 1.1893

                     40                     41                     42
                      A                      A                      A
 Frequencies --   3202.7136              3204.5700              3831.1509
 Red. masses --      1.0929                 1.0952                 1.0662
 Frc consts  --      6.6046                 6.6263                 9.2206
 IR Inten    --      1.7855                 0.9760                78.6546

 - Thermochemistry -
 -------------------
 Temperature   298.150 Kelvin.  Pressure   1.00000 Atm.
 Atom     1 has atomic number  6 and mass  12.00000

 Molecular mass:   162.02925 amu.
 Principal axes and moments of inertia in atomic units:
                           1         2         3
     Eigenvalues --   639.940882894.091233214.80309
           X            0.99999   0.00542   0.00023
           Y           -0.00542   0.99999   0.00019
           Z           -0.00023  -0.00019   1.00000
 This molecule is an asymmetric top.
 Rotational symmetry number  1.
 Warning -- assumption of classical behavior for rotation
           may cause significant error
 Rotational temperatures (Kelvin)      0.13535     0.02993     0.02694
 Rotational constants (GHZ):           2.82017     0.62360     0.56138
 Zero-point vibrational energy     285344.4 (Joules/Mol)
                                   68.19896 (Kcal/Mol)
 Warning -- explicit consideration of  14 degrees of freedom as
           vibrations may cause significant error
 Vibrational temperatures:     27.22   136.29   253.99   331.53   445.66
          (Kelvin)            484.46   528.66   584.61   602.30   628.92
                              733.30   820.15   843.63   869.95   936.77
                             1053.07  1071.29  1178.34  1215.91  1223.64
                             1373.82  1410.19  1475.33  1543.02  1579.58
                             1595.36  1662.09  1711.09  1722.30  1856.42
                             1899.28  1927.79  1968.69  2110.76  2230.46
                             2350.66  2383.03  4547.77  4589.87  4607.98
                             4610.66  5512.16

 Zero-point correction=                           0.108682 (Hartree/Particle)
 Thermal correction to Energy=                    0.117828
 Thermal correction to Enthalpy=                  0.118772
 Thermal correction to Gibbs Free Energy=         0.072938
 Sum of electronic and zero-point Energies=           -644.600566
 Sum of electronic and thermal Energies=              -644.591419
 Sum of electronic and thermal Enthalpies=            -644.590475
 Sum of electronic and thermal Free Energies=         -644.636310

                     E (Thermal)             CV                S
                      KCal/Mol        Cal/Mol-Kelvin    Cal/Mol-Kelvin
 Total                   73.938             34.726             96.468
 Electronic               0.000              0.000              0.000
 Translational            0.889              2.981             41.157
 Rotational               0.889              2.981             30.166
 Vibrational             72.161             28.764             25.145
 Vibration     1          0.593              1.986              6.745
 Vibration     2          0.603              1.953              3.560
 Vibration     3          0.628              1.871              2.365
 Vibration     4          0.652              1.795              1.876
 Vibration     5          0.699              1.655              1.364
 Vibration     6          0.717              1.602              1.228
 Vibration     7          0.740              1.539              1.090
 Vibration     8          0.771              1.456              0.940
 Vibration     9          0.781              1.430              0.897
 Vibration    10          0.797              1.389              0.836
 Vibration    11          0.865              1.229              0.634
 Vibration    12          0.926              1.096              0.504
 Vibration    13          0.943              1.061              0.474
 Vibration    14          0.963              1.022              0.442

 Optimization completed on the basis of negligible forces.
    -- Stationary point found.
 Normal termination of Gaussian 09 at Tue Apr 23 11:56:28 2024.
