 Gaussian 09, Revision D.01,
 Gaussian 09:  ES64L-G09RevD.01 24-Apr-2013

 ----------------------------------------------------------------------
 # opt freq=noraman b3lyp/6-311+g(d,p) pop=(npa,hirshfeld,chelpg,mbs) g
 eom=connectivity
 ----------------------------------------------------------------------

 -------------------
 Title Card Required
 -------------------
 Symbolic Z-matrix:
 Charge =  0 Multiplicity = 1

 SCF Done:  E(RB3LYP) =  -1057.24071841     A.U. after   16 cycles
 SCF Done:  E(RB3LYP) =  -1057.28456445     A.U. after   15 cycles
 SCF Done:  E(RB3LYP) =  -1057.27890852     A.U. after   15 cycles
 SCF Done:  E(RB3LYP) =  -1057.28577524     A.U. after   11 cycles
 SCF Done:  E(RB3LYP) =  -1057.29948980     A.U. after   14 cycles
 SCF Done:  E(RB3LYP) =  -1057.30354351     A.U. after   15 cycles
 SCF Done:  E(RB3LYP) =  -1057.30628120     A.U. after   15 cycles
 SCF Done:  E(RB3LYP) =  -1057.30766439     A.U. after   15 cycles
 SCF Done:  E(RB3LYP) =  -1057.30846640     A.U. after   15 cycles
 SCF Done:  E(RB3LYP) =  -1057.30898462     A.U. after   15 cycles
 SCF Done:  E(RB3LYP) =  -1057.30982381     A.U. after   12 cycles
 SCF Done:  E(RB3LYP) =  -1057.30984683     A.U. after   13 cycles
 SCF Done:  E(RB3LYP) =  -1057.30983485     A.U. after   12 cycles
 SCF Done:  E(RB3LYP) =  -1057.30984962     A.U. after   12 cycles
 SCF Done:  E(RB3LYP) =  -1057.30985002     A.U. after    8 cycles
 SCF Done:  E(RB3LYP) =  -1057.30984523     A.U. after   11 cycles
 SCF Done:  E(RB3LYP) =  -1057.30985413     A.U. after   12 cycles
 SCF Done:  E(RB3LYP) =  -1057.30985161     A.U. after   11 cycles
 SCF Done:  E(RB3LYP) =  -1057.30985197     A.U. after    9 cycles
 Optimization completed.
    -- Stationary point found.
 Normal termination of Gaussian 09 at Tue Apr 23 15:06:15 2024.

 ----------------------------------------------------------------------
 #N Geom=AllCheck Guess=TCheck SCRF=Check GenChk RB3LYP/6-311+G(d,p) Fr
 eq
 ----------------------------------------------------------------------

 Structure from the checkpoint file:  "83.chk"
 -------------------
 Title Card Required
 -------------------
 Charge =  0 Multiplicity = 1

                         Standard orientation:
 ---------------------------------------------------------------------
 Center     Atomic      Atomic             Coordinates (Angstroms)
 Number     Number       Type             X           Y           Z
 ---------------------------------------------------------------------
      1          7           0       -0.247628   -0.100548    0.580544
      2          1           0       -0.327012   -1.084901    0.784245
      3          6           0       -1.426373    0.619722    0.629382
      4          8           0       -1.487920    1.816493    0.406359
      5          6           0       -3.640058   -0.470318   -0.194629
      6          6           0       -4.281267    0.845066   -0.672958
      7          1           0       -4.832694    1.329400    0.138512
      8          1           0       -3.533003    1.553532   -1.030155
      9          1           0       -4.986078    0.644060   -1.485623
     10          6           0       -2.908507   -1.149555   -1.366945
     11          1           0       -2.444723   -2.092822   -1.058305
     12          1           0       -3.611925   -1.377949   -2.172717
     13          1           0       -2.127764   -0.507093   -1.783278
     14          6           0       -4.744082   -1.409038    0.328327
     15          1           0       -5.481804   -1.607840   -0.454713
     16          1           0       -4.333207   -2.370972    0.651692
     17          1           0       -5.271635   -0.964443    1.177727
     18          6           0        1.052793    0.336308    0.256956
     19          6           0        1.369153    1.663910   -0.060341
     20          6           0        2.065138   -0.635507    0.260184
     21          6           0        2.686925    1.992562   -0.368708
     22          1           0        0.592682    2.412036   -0.061820
     23          6           0        3.366501   -0.272328   -0.051760
     24          1           0        1.838701   -1.667308    0.503044
     25          6           0        3.701860    1.039102   -0.370769
     26          1           0        2.927200    3.020871   -0.613758
     27         17           0        4.618317   -1.510330   -0.042310
     28          1           0        4.723122    1.302090   -0.611795
     29          6           0       -2.653692   -0.210411    0.984936
     30          1           0       -3.182013    0.337120    1.770666
     31          1           0       -2.354837   -1.175357    1.408817
 ---------------------------------------------------------------------

 SCF Done:  E(RB3LYP) =  -1057.30985197     A.U. after    1 cycles

 The electronic state is 1-A.
 Alpha  occ. eigenvalues -- -101.55841 -19.10566 -14.37094 -10.29199 -10.24753
 Alpha  occ. eigenvalues --  -10.24278 -10.20178 -10.19760 -10.19217 -10.19091
 Alpha  occ. eigenvalues --  -10.18934 -10.18209 -10.16853 -10.16845 -10.15710
 Alpha  occ. eigenvalues --   -9.47299  -7.23756  -7.22781  -7.22752  -1.05979
 Alpha  occ. eigenvalues --   -0.96182  -0.89824  -0.84567  -0.83608  -0.77542
 Alpha  occ. eigenvalues --   -0.74926  -0.72493  -0.69859  -0.69147  -0.64934
 Alpha  occ. eigenvalues --   -0.63673  -0.57920  -0.56417  -0.54293  -0.51356
 Alpha  occ. eigenvalues --   -0.50278  -0.47911  -0.47411  -0.46522  -0.45384
 Alpha  occ. eigenvalues --   -0.44703  -0.43775  -0.43481  -0.42163  -0.41348
 Alpha  occ. eigenvalues --   -0.40051  -0.39210  -0.38837  -0.37933  -0.37472
 Alpha  occ. eigenvalues --   -0.37360  -0.35493  -0.34231  -0.33696  -0.33426
 Alpha  occ. eigenvalues --   -0.32255  -0.31746  -0.26930  -0.26259  -0.24133
 Alpha virt. eigenvalues --   -0.03935  -0.03069  -0.01814   0.00234   0.00900
 Alpha virt. eigenvalues --    0.01043   0.01294   0.02361   0.02601   0.03166
 Alpha virt. eigenvalues --    0.03604   0.03962   0.04353   0.05009   0.05453

 Mulliken charges:
               1
     1  N    0.002362
     2  H    0.244825
     3  C    0.486534
     4  O   -0.307097
     5  C    0.480647
     6  C   -0.497045
     7  H    0.139335
     8  H    0.171515
     9  H    0.133893
    10  C   -0.494009
    11  H    0.134032
    12  H    0.147040
    13  H    0.159462
    14  C   -0.545786
    15  H    0.145496
    16  H    0.135279
    17  H    0.141527
    18  C   -0.650114
    19  C    0.678140
    20  C   -0.281234
    21  C   -0.644592
    22  H    0.174170
    23  C    0.605134
    24  H    0.118940
    25  C   -0.653422
    26  H    0.136727
    27  Cl   0.359514
    28  H    0.146048
    29  C   -0.995198
    30  H    0.189541
    31  H    0.138337
 Sum of Mulliken charges =   0.00000

 Dipole moment (field-independent basis, Debye):
    X=             -1.5499    Y=             -1.9714    Z=              0.3487  Tot=              2.5318
 Quadrupole moment (field-independent basis, Debye-Ang):
   XX=           -100.6250   YY=            -99.7719   ZZ=           -100.2316
   XY=             10.3497   XZ=             -1.7780   YZ=             -3.3731

  Exact polarizability: 231.866  -7.183 164.780 -10.096  -6.907 115.477
 Approx polarizability: 296.181 -18.721 270.134 -17.559 -16.056 174.958

 ESP charges:
               1
     1  N   -0.788543
     2  H    0.363880
     3  C    0.865268
     4  O   -0.610879
     5  C    0.810486
     6  C   -0.398979
     7  H    0.064838
     8  H    0.088849
     9  H    0.054884
    10  C   -0.322377
    11  H    0.032957
    12  H    0.053545
    13  H    0.035054
    14  C   -0.306889
    15  H    0.040561
    16  H    0.038810
    17  H    0.051886
    18  C    0.503996
    19  C   -0.289608
    20  C   -0.310440
    21  C   -0.053214
    22  H    0.187002
    23  C    0.156144
    24  H    0.141527
    25  C   -0.147571
    26  H    0.102571
    27  Cl  -0.146555
    28  H    0.110321
    29  C   -0.456682
    30  H    0.071787
    31  H    0.057372
 Sum of ESP charges =   0.00000

 Summary of Natural Population Analysis:

                                       Natural Population
                Natural  -----------------------------------------------
    Atom  No    Charge         Core      Valence    Rydberg      Total
 -----------------------------------------------------------------------
      N    1   -0.60695      1.99926     5.59103    0.01666     7.60695
      H    2    0.39047      0.00000     0.60690    0.00263     0.60953
      C    3    0.69157      1.99937     3.26403    0.04503     5.30843
      O    4   -0.61982      1.99974     6.60825    0.01183     8.61982
      C    5   -0.08042      1.99921     4.06802    0.01320     6.08042
      C    6   -0.57733      1.99928     4.56506    0.01299     6.57733
      H    7    0.20130      0.00000     0.79753    0.00118     0.79870
      H    8    0.22318      0.00000     0.77540    0.00142     0.77682
      H    9    0.19711      0.00000     0.80164    0.00125     0.80289
      C   10   -0.57885      1.99928     4.56729    0.01228     6.57885
      H   11    0.19361      0.00000     0.80504    0.00134     0.80639
      H   12    0.20683      0.00000     0.79194    0.00124     0.79317
      H   13    0.20735      0.00000     0.79146    0.00120     0.79265
      C   14   -0.56933      1.99928     4.55795    0.01210     6.56933
      H   15    0.20499      0.00000     0.79376    0.00125     0.79501
      H   16    0.19685      0.00000     0.80188    0.00127     0.80315
      H   17    0.20217      0.00000     0.79658    0.00126     0.79783
      C   18    0.17464      1.99897     3.80625    0.02013     5.82536
      C   19   -0.23640      1.99907     4.22069    0.01665     6.23640
      C   20   -0.25945      1.99889     4.24389    0.01667     6.25945
      C   21   -0.16684      1.99917     4.15066    0.01701     6.16684
      H   22    0.25330      0.00000     0.74480    0.00191     0.74670
      C   23   -0.02247      1.99858     4.00076    0.02313     6.02247
      H   24    0.21631      0.00000     0.78178    0.00191     0.78369
      C   25   -0.24810      1.99896     4.22971    0.01943     6.24810
      H   26    0.21245      0.00000     0.78609    0.00146     0.78755
     Cl   27   -0.00107      9.99962     6.98182    0.01964    17.00107
      H   28    0.22423      0.00000     0.77414    0.00164     0.77577
      C   29   -0.45639      1.99912     4.43919    0.01809     6.45639
      H   30    0.23160      0.00000     0.76685    0.00155     0.76840
      H   31    0.19550      0.00000     0.80302    0.00148     0.80450
 =======================================================================
   * Total *    0.00000     37.98781    81.71338    0.29881   120.00000

                      1                      2                      3
                      A                      A                      A
 Frequencies --     19.1371                36.6297                42.9021
 Red. masses --      3.7309                 4.3430                 4.1869
 Frc consts  --      0.0008                 0.0034                 0.0045
 IR Inten    --      0.0414                 1.1565                 2.5755

                      4                      5                      6
                      A                      A                      A
 Frequencies --     75.9063               136.3011               166.9932
 Red. masses --      5.4907                 4.3566                 4.6893
 Frc consts  --      0.0186                 0.0477                 0.0770
 IR Inten    --      2.0802                 3.5424                 5.6519

                      7                      8                      9
                      A                      A                      A
 Frequencies --    187.9527               219.3342               231.1282
 Red. masses --      5.4195                 1.0927                 3.5898
 Frc consts  --      0.1128                 0.0310                 0.1130
 IR Inten    --      0.0163                 0.3422                 2.7678

                     10                     11                     12
                      A                      A                      A
 Frequencies --    254.5847               264.8608               275.8996
 Red. masses --      2.1676                 3.9552                 1.2379
 Frc consts  --      0.0828                 0.1635                 0.0555
 IR Inten    --      0.8854                 0.4907                 0.1619

                     13                     14                     15
                      A                      A                      A
 Frequencies --    284.0271               309.3336               360.2054
 Red. masses --      1.2890                 2.5463                 2.4233
 Frc consts  --      0.0613                 0.1436                 0.1853
 IR Inten    --      0.8284                 1.9666                 1.2801

                     16                     17                     18
                      A                      A                      A
 Frequencies --    381.4469               403.1835               421.2082
 Red. masses --      4.5411                 2.5174                 2.2998
 Frc consts  --      0.3893                 0.2411                 0.2404
 IR Inten    --      1.7926                 0.9940                 1.0115

                     19                     20                     21
                      A                      A                      A
 Frequencies --    430.7582               440.8273               452.0790
 Red. masses --      6.4453                 2.6517                 2.9644
 Frc consts  --      0.7046                 0.3036                 0.3570
 IR Inten    --      4.5867                 4.8849                 0.9354

                     22                     23                     24
                      A                      A                      A
 Frequencies --    540.0579               566.7770               585.8126
 Red. masses --      1.5608                 2.1395                 5.2055
 Frc consts  --      0.2682                 0.4049                 1.0525
 IR Inten    --     37.9257                34.7515                 1.7574

                     25                     26                     27
                      A                      A                      A
 Frequencies --    644.7085               690.3638               697.8238
 Red. masses --      4.2949                 6.2940                 2.2800
 Frc consts  --      1.0518                 1.7674                 0.6542
 IR Inten    --      1.3235                11.6603                19.5464

                     28                     29                     30
                      A                      A                      A
 Frequencies --    758.8370               793.7895               804.2688
 Red. masses --      4.0134                 1.4239                 4.4717
 Frc consts  --      1.3616                 0.5286                 1.7042
 IR Inten    --      5.5732                30.8955                10.6055

                     31                     32                     33
                      A                      A                      A
 Frequencies --    860.1168               861.7777               910.4897
 Red. masses --      1.5818                 3.4113                 2.5242
 Frc consts  --      0.6895                 1.4927                 1.2329
 IR Inten    --     24.6507                18.9506                 2.1504

                     34                     35                     36
                      A                      A                      A
 Frequencies --    915.3464               918.2328               937.2695
 Red. masses --      2.5223                 1.3719                 1.6857
 Frc consts  --      1.2451                 0.6815                 0.8725
 IR Inten    --      7.1594                 1.8145                 0.1766

                     37                     38                     39
                      A                      A                      A
 Frequencies --    941.7508               964.9703               986.9107
 Red. masses --      1.4779                 1.2146                 4.5349
 Frc consts  --      0.7723                 0.6664                 2.6024
 IR Inten    --      4.0815                 0.0147                 7.7797

                     40                     41                     42
                      A                      A                      A
 Frequencies --   1000.1579              1008.5969              1048.9048
 Red. masses --      1.3011                 6.0285                 1.4826
 Frc consts  --      0.7668                 3.6132                 0.9611
 IR Inten    --      1.0597                 9.1298                 4.6113

                     43                     44                     45
                      A                      A                      A
 Frequencies --   1057.6140              1097.3201              1121.1055
 Red. masses --      1.4915                 1.9527                 1.5836
 Frc consts  --      0.9829                 1.3853                 1.1727
 IR Inten    --     17.4853                26.5265                27.9801

                     46                     47                     48
                      A                      A                      A
 Frequencies --   1138.0509              1191.2561              1215.7382
 Red. masses --      1.5020                 1.1223                 2.0236
 Frc consts  --      1.1462                 0.9384                 1.7622
 IR Inten    --     89.0365                 2.4253                30.6861

                     49                     50                     51
                      A                      A                      A
 Frequencies --   1238.6529              1249.6451              1258.3518
 Red. masses --      3.1275                 2.5804                 2.3566
 Frc consts  --      2.8272                 2.3741                 2.1985
 IR Inten    --     37.1968                70.2668                10.0419

                     52                     53                     54
                      A                      A                      A
 Frequencies --   1305.1289              1321.8129              1339.1221
 Red. masses --      1.7410                 1.8215                 2.3058
 Frc consts  --      1.7472                 1.8751                 2.4362
 IR Inten    --      8.3302                60.3625                 2.1231

                     55                     56                     57
                      A                      A                      A
 Frequencies --   1352.2251              1402.6113              1406.2162
 Red. masses --      1.8060                 1.2328                 1.2327
 Frc consts  --      1.9456                 1.4290                 1.4362
 IR Inten    --     83.9313                 7.5855                14.8786

                     58                     59                     60
                      A                      A                      A
 Frequencies --   1428.6135              1435.7153              1480.1344
 Red. masses --      2.5337                 1.2408                 1.0974
 Frc consts  --      3.0467                 1.5069                 1.4165
 IR Inten    --    111.1885                 2.8085                 8.3621

                     61                     62                     63
                      A                      A                      A
 Frequencies --   1481.9157              1488.2235              1488.9145
 Red. masses --      1.0523                 1.0457                 1.0623
 Frc consts  --      1.3615                 1.3646                 1.3875
 IR Inten    --      0.8460                 0.5125                 7.1928

                     64                     65                     66
                      A                      A                      A
 Frequencies --   1506.4861              1509.7693              1511.0484
 Red. masses --      1.1048                 2.1369                 1.0836
 Frc consts  --      1.4773                 2.8698                 1.4578
 IR Inten    --      9.2628               186.4192                22.5777

                     67                     68                     69
                      A                      A                      A
 Frequencies --   1518.2640              1550.4638              1622.1535
 Red. masses --      1.0598                 2.0459                 4.3490
 Frc consts  --      1.4394                 2.8977                 6.7426
 IR Inten    --     13.6402               238.2066               169.0804

                     70                     71                     72
                      A                      A                      A
 Frequencies --   1635.1189              1746.9214              3012.9196
 Red. masses --      5.9780                 7.9390                 1.0355
 Frc consts  --      9.4168                14.2746                 5.5384
 IR Inten    --     98.6213               194.9154                29.4350

                     73                     74                     75
                      A                      A                      A
 Frequencies --   3016.0159              3022.3913              3029.1955
 Red. masses --      1.0382                 1.0489                 1.0493
 Frc consts  --      5.5643                 5.6454                 5.6730
 IR Inten    --     22.5793                40.2327                16.0039

                     76                     77                     78
                      A                      A                      A
 Frequencies --   3073.0577              3073.9093              3079.0531
 Red. masses --      1.1010                 1.1004                 1.1019
 Frc consts  --      6.1259                 6.1260                 6.1548
 IR Inten    --      0.5076                 2.9726                 6.8290

                     79                     80                     81
                      A                      A                      A
 Frequencies --   3080.7464              3085.7736              3090.5612
 Red. masses --      1.1004                 1.1013                 1.1014
 Frc consts  --      6.1534                 6.1785                 6.1984
 IR Inten    --     69.5423                44.9967                53.8837

                     82                     83                     84
                      A                      A                      A
 Frequencies --   3118.0276              3177.3219              3178.8206
 Red. masses --      1.0985                 1.0897                 1.0908
 Frc consts  --      6.2924                 6.4818                 6.4944
 IR Inten    --     16.8773                10.6141                 1.0107

                     85                     86                     87
                      A                      A                      A
 Frequencies --   3207.8751              3249.0622              3624.4534
 Red. masses --      1.0940                 1.0928                 1.0768
 Frc consts  --      6.6331                 6.7967                 8.3340
 IR Inten    --      1.4758                 8.2096                17.9996

 - Thermochemistry -
 -------------------
 Temperature   298.150 Kelvin.  Pressure   1.00000 Atm.
 Atom     1 has atomic number  7 and mass  14.00307

 Molecular mass:   225.09204 amu.
 Principal axes and moments of inertia in atomic units:
                           1         2         3
     Eigenvalues --  1467.755368581.257899481.09141
           X            0.99977   0.02124   0.00225
           Y           -0.02120   0.99967  -0.01456
           Z           -0.00256   0.01451   0.99989
 This molecule is an asymmetric top.
 Rotational symmetry number  1.
 Warning -- assumption of classical behavior for rotation
           may cause significant error
 Rotational temperatures (Kelvin)      0.05901     0.01009     0.00914
 Rotational constants (GHZ):           1.22959     0.21031     0.19035
 Zero-point vibrational energy     676185.8 (Joules/Mol)
                                  161.61229 (Kcal/Mol)
 Warning -- explicit consideration of  24 degrees of freedom as
           vibrations may cause significant error
 Vibrational temperatures:     27.53    52.70    61.73   109.21   196.11
          (Kelvin)            240.27   270.42   315.57   332.54   366.29
                              381.08   396.96   408.65   445.06   518.25
                              548.82   580.09   606.02   619.76   634.25
                              650.44   777.02   815.46   842.85   927.59
                              993.28  1004.01  1091.80  1142.08  1157.16
                             1237.51  1239.90  1309.99  1316.98  1321.13
                             1348.52  1354.97  1388.38  1419.94  1439.00
                             1451.14  1509.14  1521.67  1578.80  1613.02
                             1637.40  1713.95  1749.17  1782.14  1797.96
                             1810.49  1877.79  1901.79  1926.70  1945.55
                             2018.04  2023.23  2055.45  2065.67  2129.58
                             2132.14  2141.22  2142.21  2167.49  2172.22
                             2174.06  2184.44  2230.77  2333.91  2352.57
                             2513.43  4334.91  4339.37  4348.54  4358.33
                             4421.44  4422.66  4430.07  4432.50  4439.73
                             4446.62  4486.14  4571.45  4573.61  4615.41
                             4674.67  5214.77

 Zero-point correction=                           0.257546 (Hartree/Particle)
 Thermal correction to Energy=                    0.273021
 Thermal correction to Enthalpy=                  0.273965
 Thermal correction to Gibbs Free Energy=         0.213365
 Sum of electronic and zero-point Energies=          -1057.052306
 Sum of electronic and thermal Energies=             -1057.036831
 Sum of electronic and thermal Enthalpies=           -1057.035887
 Sum of electronic and thermal Free Energies=        -1057.096487

                     E (Thermal)             CV                S
                      KCal/Mol        Cal/Mol-Kelvin    Cal/Mol-Kelvin
 Total                  171.323             58.872            127.543
 Electronic               0.000              0.000              0.000
 Translational            0.889              2.981             42.137
 Rotational               0.889              2.981             33.146
 Vibrational            169.546             52.911             52.261
 Vibration     1          0.593              1.986              6.722
 Vibration     2          0.594              1.982              5.434
 Vibration     3          0.595              1.980              5.120
 Vibration     4          0.599              1.965              3.994
 Vibration     5          0.614              1.917              2.855
 Vibration     6          0.624              1.883              2.469
 Vibration     7          0.633              1.856              2.248
 Vibration     8          0.647              1.812              1.965
 Vibration     9          0.653              1.793              1.870
 Vibration    10          0.665              1.755              1.699
 Vibration    11          0.671              1.737              1.630
 Vibration    12          0.678              1.718              1.559
 Vibration    13          0.682              1.703              1.509
 Vibration    14          0.699              1.656              1.366
 Vibration    15          0.735              1.554              1.121
 Vibration    16          0.751              1.510              1.033
 Vibration    17          0.769              1.463              0.951
 Vibration    18          0.784              1.424              0.888
 Vibration    19          0.792              1.403              0.856
 Vibration    20          0.801              1.381              0.824
 Vibration    21          0.811              1.356              0.790
 Vibration    22          0.895              1.161              0.565
 Vibration    23          0.923              1.103              0.510
 Vibration    24          0.943              1.062              0.475

 Optimization completed.
    -- Stationary point found.
 Normal termination of Gaussian 09 at Tue Apr 23 15:17:27 2024.
