 Gaussian 09, Revision D.01,
 Gaussian 09:  ES64L-G09RevD.01 24-Apr-2013

 ----------------------------------------------------------------------
 # opt freq=noraman b3lyp/6-311+g(d,p) pop=(npa,hirshfeld,chelpg,mbs) g
 eom=connectivity
 ----------------------------------------------------------------------

 -------------------
 Title Card Required
 -------------------
 Symbolic Z-matrix:
 Charge =  0 Multiplicity = 1

 SCF Done:  E(RB3LYP) =  -574.816725961     A.U. after   16 cycles
 SCF Done:  E(RB3LYP) =  -574.827024783     A.U. after   13 cycles
 SCF Done:  E(RB3LYP) =  -574.828693657     A.U. after   12 cycles
 SCF Done:  E(RB3LYP) =  -574.828667298     A.U. after   12 cycles
 SCF Done:  E(RB3LYP) =  -574.828166180     A.U. after   13 cycles
 SCF Done:  E(RB3LYP) =  -574.828807609     A.U. after   10 cycles
 SCF Done:  E(RB3LYP) =  -574.828970281     A.U. after   12 cycles
 SCF Done:  E(RB3LYP) =  -574.829851847     A.U. after   15 cycles
 SCF Done:  E(RB3LYP) =  -574.831104363     A.U. after   12 cycles
 SCF Done:  E(RB3LYP) =  -574.831943629     A.U. after   13 cycles
 SCF Done:  E(RB3LYP) =  -574.835057603     A.U. after   13 cycles
 SCF Done:  E(RB3LYP) =  -574.835231625     A.U. after   12 cycles
 SCF Done:  E(RB3LYP) =  -574.835248081     A.U. after   11 cycles
 SCF Done:  E(RB3LYP) =  -574.835249143     A.U. after   10 cycles
 SCF Done:  E(RB3LYP) =  -574.835249313     A.U. after    9 cycles
 SCF Done:  E(RB3LYP) =  -574.835249339     A.U. after    8 cycles
 SCF Done:  E(RB3LYP) =  -574.835249366     A.U. after    8 cycles
 SCF Done:  E(RB3LYP) =  -574.835249401     A.U. after    8 cycles
 SCF Done:  E(RB3LYP) =  -574.835249427     A.U. after    8 cycles
 Optimization completed.
    -- Stationary point found.
 Normal termination of Gaussian 09 at Tue Apr 23 12:03:17 2024.

 ----------------------------------------------------------------------
 #N Geom=AllCheck Guess=TCheck SCRF=Check GenChk RB3LYP/6-311+G(d,p) Fr
 eq
 ----------------------------------------------------------------------

 Structure from the checkpoint file:  "32.chk"
 -------------------
 Title Card Required
 -------------------
 Charge =  0 Multiplicity = 1

                         Standard orientation:
 ---------------------------------------------------------------------
 Center     Atomic      Atomic             Coordinates (Angstroms)
 Number     Number       Type             X           Y           Z
 ---------------------------------------------------------------------
      1          6           0        1.742295    1.927784    0.000157
      2          6           0        0.463741    1.372496    0.000147
      3          6           0        0.323381   -0.017849    0.000044
      4          6           0        1.455025   -0.840028   -0.000067
      5          6           0        2.725361   -0.272455   -0.000103
      6          6           0        2.872213    1.117152    0.000049
      7          1           0        1.861254    3.005232    0.000234
      8          1           0        1.318181   -1.916351   -0.000106
      9          1           0        3.869886    1.539375    0.000100
     10          8           0        3.868558   -1.023728   -0.000288
     11          1           0        3.643658   -1.960260   -0.000138
     12          1           0       -0.414332    2.003056    0.000181
     13          6           0       -1.009453   -0.690320    0.000117
     14          8           0       -1.166126   -1.891479    0.000213
     15          8           0       -2.032238    0.187718    0.000070
     16          6           0       -3.367094   -0.376122    0.000210
     17          1           0       -3.476791   -1.010025    0.883010
     18          1           0       -3.476618   -1.010880   -0.881993
     19          6           0       -4.350418    0.776172   -0.000451
     20          1           0       -5.371928    0.386498   -0.000380
     21          1           0       -4.222686    1.401577    0.885944
     22          1           0       -4.222475    1.400712   -0.887424
 ---------------------------------------------------------------------

 SCF Done:  E(RB3LYP) =  -574.835249427     A.U. after    1 cycles

 The electronic state is 1-A.
 Alpha  occ. eigenvalues --  -19.17221 -19.16607 -19.11441 -10.30786 -10.25005
 Alpha  occ. eigenvalues --  -10.23539 -10.20118 -10.18986 -10.18873 -10.18709
 Alpha  occ. eigenvalues --  -10.18460 -10.17536  -1.11358  -1.07758  -1.02590
 Alpha  occ. eigenvalues --   -0.87286  -0.79526  -0.76933  -0.75611  -0.67723
 Alpha  occ. eigenvalues --   -0.63603  -0.62720  -0.57857  -0.56775  -0.51807
 Alpha  occ. eigenvalues --   -0.50248  -0.49690  -0.48361  -0.46891  -0.44561
 Alpha  occ. eigenvalues --   -0.43941  -0.42202  -0.41533  -0.40804  -0.40447
 Alpha  occ. eigenvalues --   -0.37914  -0.37573  -0.36939  -0.35748  -0.34945
 Alpha  occ. eigenvalues --   -0.31396  -0.28819  -0.27213  -0.24346
 Alpha virt. eigenvalues --   -0.06028  -0.01601  -0.00533   0.00335   0.01337
 Alpha virt. eigenvalues --    0.02846   0.03322   0.03398   0.04381   0.04551
 Alpha virt. eigenvalues --    0.05183   0.05954   0.06138   0.06829   0.07984

 Mulliken charges:
               1
     1  C   -0.492807
     2  C   -0.090201
     3  C    1.159164
     4  C   -0.227704
     5  C   -0.615403
     6  C    0.419927
     7  H    0.131343
     8  H    0.130957
     9  H    0.133248
    10  O   -0.255453
    11  H    0.253534
    12  H    0.140415
    13  C   -0.590142
    14  O   -0.276645
    15  O   -0.105563
    16  C    0.062233
    17  H    0.160545
    18  H    0.160541
    19  C   -0.541592
    20  H    0.148584
    21  H    0.147506
    22  H    0.147512
 Sum of Mulliken charges =   0.00000

 Dipole moment (field-independent basis, Debye):
    X=             -1.0974    Y=              1.0470    Z=              0.0002  Tot=              1.5168
 Quadrupole moment (field-independent basis, Debye-Ang):
   XX=            -63.6888   YY=            -67.9575   ZZ=            -72.8540
   XY=             -4.0330   XZ=              0.0014   YZ=              0.0011

  Exact polarizability: 158.256   1.383 124.501  -0.003   0.001  70.081
 Approx polarizability: 212.075   1.910 209.735  -0.006   0.005 105.242

 ESP charges:
               1
     1  C   -0.051542
     2  C   -0.150516
     3  C   -0.029317
     4  C   -0.275914
     5  C    0.446795
     6  C   -0.216725
     7  H    0.091469
     8  H    0.119858
     9  H    0.149361
    10  O   -0.639299
    11  H    0.433719
    12  H    0.101979
    13  C    0.719355
    14  O   -0.557291
    15  O   -0.473118
    16  C    0.419713
    17  H   -0.016638
    18  H   -0.016713
    19  C   -0.258577
    20  H    0.048909
    21  H    0.077239
    22  H    0.077254
 Sum of ESP charges =   0.00000

 Summary of Natural Population Analysis:

                                       Natural Population
                Natural  -----------------------------------------------
    Atom  No    Charge         Core      Valence    Rydberg      Total
 -----------------------------------------------------------------------
      C    1   -0.18682      1.99918     4.17036    0.01728     6.18682
      C    2   -0.19434      1.99909     4.17833    0.01692     6.19434
      C    3   -0.13741      1.99893     4.11976    0.01872     6.13741
      C    4   -0.24159      1.99899     4.22511    0.01749     6.24159
      C    5    0.31189      1.99878     3.66567    0.02365     5.68811
      C    6   -0.22905      1.99906     4.21192    0.01806     6.22905
      H    7    0.20972      0.00000     0.78879    0.00149     0.79028
      H    8    0.22856      0.00000     0.76919    0.00224     0.77144
      H    9    0.22128      0.00000     0.77709    0.00163     0.77872
      O   10   -0.67458      1.99975     6.66247    0.01236     8.67458
      H   11    0.47238      0.00000     0.52333    0.00429     0.52762
      H   12    0.22644      0.00000     0.77200    0.00156     0.77356
      C   13    0.80076      1.99928     3.15259    0.04737     5.19924
      O   14   -0.60617      1.99975     6.59505    0.01138     8.60617
      O   15   -0.56484      1.99971     6.54773    0.01739     8.56484
      C   16   -0.03635      1.99921     4.01785    0.01929     6.03635
      H   17    0.18652      0.00000     0.81133    0.00215     0.81348
      H   18    0.18654      0.00000     0.81131    0.00215     0.81346
      C   19   -0.59282      1.99936     4.58486    0.00860     6.59282
      H   20    0.20832      0.00000     0.79049    0.00118     0.79168
      H   21    0.20577      0.00000     0.79262    0.00161     0.79423
      H   22    0.20577      0.00000     0.79261    0.00161     0.79423
 =======================================================================
   * Total *    0.00000     23.99110    63.76047    0.24843    88.00000

                      1                      2                      3
                      A                      A                      A
 Frequencies --     17.7573                67.4902                98.6536
 Red. masses --      3.0262                 3.9083                 3.0541
 Frc consts  --      0.0006                 0.0105                 0.0175
 IR Inten    --      0.2479                 1.8190                 0.2283

                      4                      5                      6
                      A                      A                      A
 Frequencies --    103.4625               186.4450               232.6125
 Red. masses --      4.0438                 3.0362                 3.9287
 Frc consts  --      0.0255                 0.0622                 0.1252
 IR Inten    --      0.7048                 2.1192                 1.5709

                      7                      8                      9
                      A                      A                      A
 Frequencies --    232.9464               263.1560               311.3535
 Red. masses --      5.0664                 1.3253                 5.2679
 Frc consts  --      0.1620                 0.0541                 0.3009
 IR Inten    --      6.8081                 0.7829                 5.4455

                     10                     11                     12
                      A                      A                      A
 Frequencies --    323.9455               389.2253               412.4899
 Red. masses --      1.1374                 4.0590                 5.0926
 Frc consts  --      0.0703                 0.3623                 0.5105
 IR Inten    --    112.3883                11.2819                 6.5006

                     13                     14                     15
                      A                      A                      A
 Frequencies --    440.8848               508.3977               551.7359
 Red. masses --      3.1858                 5.6041                 4.7919
 Frc consts  --      0.3649                 0.8534                 0.8594
 IR Inten    --      3.8353                 3.0602                 5.2814

                     16                     17                     18
                      A                      A                      A
 Frequencies --    555.0826               672.7333               683.6555
 Red. masses --      6.0484                 2.7876                 7.3972
 Frc consts  --      1.0980                 0.7433                 2.0370
 IR Inten    --      0.3584                 8.6070                 0.8932

                     19                     20                     21
                      A                      A                      A
 Frequencies --    771.1933               808.9913               820.0887
 Red. masses --      2.4050                 1.1578                 8.4942
 Frc consts  --      0.8427                 0.4465                 3.3659
 IR Inten    --     61.3269                 1.4493                20.0164

                     22                     23                     24
                      A                      A                      A
 Frequencies --    821.9556               879.1274               897.9245
 Red. masses --      1.7798                 2.6900                 1.4994
 Frc consts  --      0.7085                 1.2249                 0.7123
 IR Inten    --      3.2900                 7.3727                14.7368

                     25                     26                     27
                      A                      A                      A
 Frequencies --    924.6396               950.2372               994.1304
 Red. masses --      1.4378                 3.7871                 1.3001
 Frc consts  --      0.7242                 2.0147                 0.7570
 IR Inten    --      0.1572                45.4631                 0.0528

                     28                     29                     30
                      A                      A                      A
 Frequencies --   1013.3178              1040.9018              1098.9590
 Red. masses --      6.2510                 3.0351                 1.6084
 Frc consts  --      3.7818                 1.9375                 1.1445
 IR Inten    --      9.9220                69.8053                 9.7063

                     31                     32                     33
                      A                      A                      A
 Frequencies --   1124.0903              1138.0858              1175.8637
 Red. masses --      2.2404                 2.2459                 1.5562
 Frc consts  --      1.6679                 1.7139                 1.2677
 IR Inten    --    139.3258                46.3740                 3.5745

                     34                     35                     36
                      A                      A                      A
 Frequencies --   1183.1354              1191.5611              1245.2641
 Red. masses --      1.1799                 1.2560                 4.1734
 Frc consts  --      0.9731                 1.0507                 3.8130
 IR Inten    --      5.8710               205.9876               188.9269

                     37                     38                     39
                      A                      A                      A
 Frequencies --   1297.0028              1303.5852              1339.4251
 Red. masses --      1.0951                 3.0803                 1.5188
 Frc consts  --      1.0854                 3.0840                 1.6055
 IR Inten    --      1.0716               445.4620                17.4222

                     40                     41                     42
                      A                      A                      A
 Frequencies --   1361.1898              1396.9528              1424.7839
 Red. masses --      5.1644                 1.3017                 1.3995
 Frc consts  --      5.6377                 1.4967                 1.6739
 IR Inten    --     21.7485                 8.8816                 8.9972

                     43                     44                     45
                      A                      A                      A
 Frequencies --   1479.7554              1486.3682              1498.5981
 Red. masses --      3.0917                 1.0388                 1.0467
 Frc consts  --      3.9886                 1.3521                 1.3849
 IR Inten    --    151.5978                 7.9419                 3.1967

                     46                     47                     48
                      A                      A                      A
 Frequencies --   1518.8381              1527.1494              1636.9788
 Red. masses --      1.0998                 2.4445                 6.1067
 Frc consts  --      1.4949                 3.3589                 9.6415
 IR Inten    --      6.0408                 2.6695                45.8790

                     49                     50                     51
                      A                      A                      A
 Frequencies --   1642.3731              1758.8014              3036.3472
 Red. masses --      6.0837                12.3664                 1.0349
 Frc consts  --      9.6685                22.5386                 5.6214
 IR Inten    --     43.9955               279.6213                17.7493

                     52                     53                     54
                      A                      A                      A
 Frequencies --   3052.6230              3087.2670              3102.9600
 Red. masses --      1.0578                 1.1071                 1.1005
 Frc consts  --      5.8078                 6.2170                 6.2431
 IR Inten    --     16.1963                 1.9364                26.7413

                     55                     56                     57
                      A                      A                      A
 Frequencies --   3115.0085              3174.1726              3176.2300
 Red. masses --      1.1056                 1.0905                 1.0882
 Frc consts  --      6.3209                 6.4737                 6.4681
 IR Inten    --     38.3143                 8.2694                 6.2667

                     58                     59                     60
                      A                      A                      A
 Frequencies --   3196.3462              3217.9795              3831.8318
 Red. masses --      1.0937                 1.0929                 1.0662
 Frc consts  --      6.5837                 6.6683                 9.2237
 IR Inten    --      5.5447                 1.6525                67.9724

 - Thermochemistry -
 -------------------
 Temperature   298.150 Kelvin.  Pressure   1.00000 Atm.
 Atom     1 has atomic number  6 and mass  12.00000

 Molecular mass:   166.06299 amu.
 Principal axes and moments of inertia in atomic units:
                           1         2         3
     Eigenvalues --   760.765963864.567814602.80366
           X            0.99998  -0.00694   0.00000
           Y            0.00694   0.99998   0.00000
           Z            0.00000   0.00000   1.00000
 This molecule is an asymmetric top.
 Rotational symmetry number  1.
 Warning -- assumption of classical behavior for rotation
           may cause significant error
 Rotational temperatures (Kelvin)      0.11385     0.02241     0.01882
 Rotational constants (GHZ):           2.37227     0.46700     0.39210
 Zero-point vibrational energy     459330.5 (Joules/Mol)
                                  109.78262 (Kcal/Mol)
 Warning -- explicit consideration of  16 degrees of freedom as
           vibrations may cause significant error
 Vibrational temperatures:     25.55    97.10   141.94   148.86   268.25
          (Kelvin)            334.68   335.16   378.62   447.97   466.08
                              560.01   593.48   634.33   731.47   793.82
                              798.64   967.91   983.63  1109.57  1163.96
                             1179.92  1182.61  1264.87  1291.91  1330.35
                             1367.18  1430.33  1457.94  1497.62  1581.15
                             1617.31  1637.45  1691.80  1702.27  1714.39
                             1791.66  1866.10  1875.57  1927.13  1958.45
                             2009.90  2049.94  2129.04  2138.55  2156.15
                             2185.27  2197.22  2355.24  2363.01  2530.52
                             4368.62  4392.04  4441.88  4464.46  4481.80
                             4566.92  4569.88  4598.82  4629.95  5513.14

 Zero-point correction=                           0.174950 (Hartree/Particle)
 Thermal correction to Energy=                    0.186388
 Thermal correction to Enthalpy=                  0.187332
 Thermal correction to Gibbs Free Energy=         0.136150
 Sum of electronic and zero-point Energies=           -574.660300
 Sum of electronic and thermal Energies=              -574.648861
 Sum of electronic and thermal Enthalpies=            -574.647917
 Sum of electronic and thermal Free Energies=         -574.699099

                     E (Thermal)             CV                S
                      KCal/Mol        Cal/Mol-Kelvin    Cal/Mol-Kelvin
 Total                  116.960             42.274            107.722
 Electronic               0.000              0.000              0.000
 Translational            0.889              2.981             41.230
 Rotational               0.889              2.981             30.982
 Vibrational            115.183             36.312             35.510
 Vibration     1          0.593              1.986              6.870
 Vibration     2          0.598              1.970              4.225
 Vibration     3          0.604              1.950              3.481
 Vibration     4          0.605              1.946              3.388
 Vibration     5          0.632              1.858              2.263
 Vibration     6          0.653              1.791              1.859
 Vibration     7          0.654              1.791              1.856
 Vibration     8          0.670              1.740              1.641
 Vibration     9          0.700              1.652              1.355
 Vibration    10          0.708              1.628              1.290
 Vibration    11          0.757              1.493              1.003
 Vibration    12          0.776              1.443              0.918
 Vibration    13          0.801              1.381              0.824
 Vibration    14          0.864              1.231              0.637
 Vibration    15          0.907              1.136              0.541
 Vibration    16          0.911              1.129              0.534

 Optimization completed.
    -- Stationary point found.
 Normal termination of Gaussian 09 at Tue Apr 23 12:06:29 2024.
