 Gaussian 09, Revision D.01,
 Gaussian 09:  ES64L-G09RevD.01 24-Apr-2013

 ----------------------------------------------------------------------
 # opt freq b3lyp/6-311+g(d,p) pop=(npa,chelpg,hirshfeld,mbs) geom=conn
 ectivity
 ----------------------------------------------------------------------

 --------
 Chart6_5
 --------
 Symbolic Z-matrix:
 Charge =  0 Multiplicity = 1

 SCF Done:  E(RB3LYP) =  -461.416558467     A.U. after   15 cycles
 Optimization completed.
    -- Stationary point found.
 Normal termination of Gaussian 09 at Thu Jul 22 14:21:02 2021.

 ----------------------------------------------------------------------
 #N Geom=AllCheck Guess=TCheck SCRF=Check GenChk RB3LYP/6-311+G(d,p) Fr
 eq
 ----------------------------------------------------------------------

 Structure from the checkpoint file:  "Chart6_5.chk"
 --------
 Chart6_5
 --------
 Charge =  0 Multiplicity = 1

                         Standard orientation:
 ---------------------------------------------------------------------
 Center     Atomic      Atomic             Coordinates (Angstroms)
 Number     Number       Type             X           Y           Z
 ---------------------------------------------------------------------
      1          6           0        0.146656    0.533457   -0.062119
      2          6           0       -0.892058    1.439020    0.160980
      3          6           0       -2.216218    0.996592    0.210710
      4          6           0       -2.513445   -0.349486    0.039164
      5          6           0       -1.476270   -1.259134   -0.173476
      6          6           0       -0.153148   -0.837093   -0.221276
      7          1           0       -0.679791    2.492423    0.286062
      8          1           0       -3.009094    1.716021    0.380138
      9          1           0       -3.539781   -0.695421    0.070799
     10          1           0       -1.674662   -2.314972   -0.317062
     11          8           0        0.824580   -1.758119   -0.504739
     12          8           0        1.464993    0.877010   -0.152510
     13          6           0        1.815417    2.251848   -0.067600
     14          1           0        1.548193    2.674820    0.906974
     15          1           0        2.896310    2.290455   -0.193284
     16          1           0        1.336833    2.834199   -0.862055
     17          6           0        1.757500   -2.037239    0.545207
     18          1           0        1.235110   -2.418005    1.430118
     19          1           0        2.423026   -2.808536    0.158403
     20          1           0        2.336668   -1.149898    0.808358
 ---------------------------------------------------------------------

 SCF Done:  E(RB3LYP) =  -461.416558467     A.U. after    1 cycles

 The electronic state is 1-A.
 Alpha  occ. eigenvalues --  -19.16128 -19.13690 -10.23859 -10.23210 -10.22726
 Alpha  occ. eigenvalues --  -10.21232 -10.17809 -10.17629 -10.17349 -10.17168
 Alpha  occ. eigenvalues --   -1.07975  -1.04822  -0.85566  -0.76356  -0.75554
 Alpha  occ. eigenvalues --   -0.71201  -0.68213  -0.61178  -0.59669  -0.54362
 Alpha  occ. eigenvalues --   -0.50948  -0.50018  -0.48115  -0.46567  -0.45599
 Alpha  occ. eigenvalues --   -0.44894  -0.43649  -0.42464  -0.39016  -0.38169
 Alpha  occ. eigenvalues --   -0.36827  -0.35621  -0.33426  -0.32847  -0.28252
 Alpha  occ. eigenvalues --   -0.25005  -0.22458
 Alpha virt. eigenvalues --   -0.01299  -0.00431  -0.00010   0.01432   0.01542
 Alpha virt. eigenvalues --    0.03230   0.03314   0.03984   0.04199   0.05499
 Alpha virt. eigenvalues --    0.05958   0.06639   0.07339   0.08348   0.09081

 Mulliken charges:
               1
     1  C    0.095479
     2  C    0.155545
     3  C   -0.290146
     4  C   -0.147730
     5  C    0.359087
     6  C   -0.672456
     7  H    0.122034
     8  H    0.123319
     9  H    0.123533
    10  H    0.128368
    11  O   -0.180297
    12  O   -0.202884
    13  C   -0.232747
    14  H    0.148683
    15  H    0.160648
    16  H    0.146268
    17  C   -0.261955
    18  H    0.129982
    19  H    0.143101
    20  H    0.152166
 Sum of Mulliken charges =   0.00000

 Dipole moment (field-independent basis, Debye):
    X=              0.5734    Y=              1.7647    Z=              1.3356  Tot=              2.2862
 Quadrupole moment (field-independent basis, Debye-Ang):
   XX=            -54.5998   YY=            -52.5585   ZZ=            -63.8123
   XY=              2.1555   XZ=              1.5432   YZ=             -1.8808

  Exact polarizability: 126.175   0.478 115.548  -1.006   2.304  67.228
 Approx polarizability: 186.901  -0.398 173.330  -5.416   8.944 101.279

 ESP charges:
               1
     1  C    0.190167
     2  C   -0.207356
     3  C   -0.098363
     4  C   -0.168419
     5  C   -0.129513
     6  C    0.258303
     7  H    0.123045
     8  H    0.097997
     9  H    0.108059
    10  H    0.119090
    11  O   -0.450018
    12  O   -0.258692
    13  C    0.090511
    14  H    0.025572
    15  H    0.055239
    16  H    0.023364
    17  C    0.217727
    18  H   -0.017774
    19  H    0.042077
    20  H   -0.021016
 Sum of ESP charges =   0.00000

 Summary of Natural Population Analysis:

                                       Natural Population
                Natural  -----------------------------------------------
    Atom  No    Charge         Core      Valence    Rydberg      Total
 -----------------------------------------------------------------------
      C    1    0.28499      1.99871     3.69403    0.02228     5.71501
      C    2   -0.28561      1.99909     4.27056    0.01597     6.28561
      C    3   -0.20095      1.99918     4.18340    0.01837     6.20095
      C    4   -0.22457      1.99916     4.20722    0.01819     6.22457
      C    5   -0.22417      1.99906     4.20727    0.01784     6.22417
      C    6    0.27235      1.99869     3.70368    0.02529     5.72765
      H    7    0.21117      0.00000     0.78694    0.00189     0.78883
      H    8    0.20562      0.00000     0.79291    0.00148     0.79438
      H    9    0.20726      0.00000     0.79125    0.00148     0.79274
      H   10    0.21805      0.00000     0.78014    0.00181     0.78195
      O   11   -0.57137      1.99972     6.54965    0.02200     8.57137
      O   12   -0.54370      1.99971     6.52572    0.01827     8.54370
      C   13   -0.20729      1.99926     4.19221    0.01582     6.20729
      H   14    0.16913      0.00000     0.82856    0.00231     0.83087
      H   15    0.19190      0.00000     0.80693    0.00117     0.80810
      H   16    0.17259      0.00000     0.82515    0.00226     0.82741
      C   17   -0.19923      1.99923     4.18463    0.01536     6.19923
      H   18    0.16206      0.00000     0.83545    0.00249     0.83794
      H   19    0.18244      0.00000     0.81633    0.00124     0.81756
      H   20    0.17932      0.00000     0.81820    0.00247     0.82068
 =======================================================================
   * Total *    0.00000     19.99182    53.80021    0.20797    74.00000

                      1                      2                      3
                      A                      A                      A
 Frequencies --     81.9308                91.1918               134.2740
 Red. masses --      2.3656                 2.8871                 2.4507
 Frc consts  --      0.0094                 0.0141                 0.0260
 IR Inten    --      2.7818                 6.2817                 1.6315

                      4                      5                      6
                      A                      A                      A
 Frequencies --    161.8921               207.4128               236.5065
 Red. masses --      1.3616                 2.4584                 1.8139
 Frc consts  --      0.0210                 0.0623                 0.0598
 IR Inten    --      1.4338                 0.1133                 1.2933

                      7                      8                      9
                      A                      A                      A
 Frequencies --    276.1932               333.5793               357.5120
 Red. masses --      2.1166                 4.3297                 3.8891
 Frc consts  --      0.0951                 0.2839                 0.2929
 IR Inten    --      2.2312                 4.5838                 2.2343

                     10                     11                     12
                      A                      A                      A
 Frequencies --    474.0700               514.9219               541.3801
 Red. masses --      4.1392                 3.8052                 5.6852
 Frc consts  --      0.5481                 0.5944                 0.9818
 IR Inten    --      5.5496                 1.3957                 2.2603

                     13                     14                     15
                      A                      A                      A
 Frequencies --    580.7134               605.0903               746.2474
 Red. masses --      4.2983                 4.8947                 4.2492
 Frc consts  --      0.8540                 1.0559                 1.3942
 IR Inten    --      1.0706                 3.0112                 6.2858

                     16                     17                     18
                      A                      A                      A
 Frequencies --    756.4227               766.3088               829.8839
 Red. masses --      1.5169                 2.4575                 4.6717
 Frc consts  --      0.5114                 0.8503                 1.8957
 IR Inten    --     64.6355                27.7802                 9.9514

                     19                     20                     21
                      A                      A                      A
 Frequencies --    858.3860               939.0982               976.6821
 Red. masses --      1.6528                 1.3878                 1.2746
 Frc consts  --      0.7175                 0.7211                 0.7164
 IR Inten    --      0.6451                 2.7173                 0.0511

                     22                     23                     24
                      A                      A                      A
 Frequencies --   1029.2644              1052.7949              1067.5464
 Red. masses --      7.8995                 5.6243                 2.1697
 Frc consts  --      4.9306                 3.6729                 1.4569
 IR Inten    --     53.5343                39.3719                35.5107

                     25                     26                     27
                      A                      A                      A
 Frequencies --   1132.1202              1168.2641              1169.1560
 Red. masses --      1.7443                 1.2552                 1.2727
 Frc consts  --      1.3172                 1.0093                 1.0250
 IR Inten    --     58.8997                 4.2050                 0.6381

                     28                     29                     30
                      A                      A                      A
 Frequencies --   1181.6908              1194.7688              1206.3361
 Red. masses --      1.1170                 1.6079                 1.3556
 Frc consts  --      0.9190                 1.3523                 1.1623
 IR Inten    --      5.7625                28.8201                 2.6229

                     31                     32                     33
                      A                      A                      A
 Frequencies --   1243.7129              1284.6034              1297.1726
 Red. masses --      2.7871                 3.7586                 1.6337
 Frc consts  --      2.5401                 3.6544                 1.6197
 IR Inten    --    101.4802               251.1718                14.7290

                     34                     35                     36
                      A                      A                      A
 Frequencies --   1336.6610              1462.6194              1470.3621
 Red. masses --      6.1828                 1.3345                 1.2506
 Frc consts  --      6.5084                 1.6820                 1.5930
 IR Inten    --     22.9048                 4.3456                14.5471

                     37                     38                     39
                      A                      A                      A
 Frequencies --   1486.1829              1491.3029              1493.7340
 Red. masses --      1.0688                 1.6505                 1.0457
 Frc consts  --      1.3909                 2.1627                 1.3747
 IR Inten    --     12.9551                 6.3217                 9.3620

                     40                     41                     42
                      A                      A                      A
 Frequencies --   1504.9341              1509.4425              1530.5385
 Red. masses --      1.0744                 1.0489                 2.5862
 Frc consts  --      1.4337                 1.4081                 3.5695
 IR Inten    --     47.6506                 5.0297               149.0744

                     43                     44                     45
                      A                      A                      A
 Frequencies --   1621.3434              1633.9934              3005.4131
 Red. masses --      6.4725                 5.9171                 1.0345
 Frc consts  --     10.0247                 9.3081                 5.5053
 IR Inten    --      4.5570                28.1851                59.1246

                     46                     47                     48
                      A                      A                      A
 Frequencies --   3011.1880              3064.8117              3087.9262
 Red. masses --      1.0385                 1.1061                 1.0962
 Frc consts  --      5.5482                 6.1213                 6.1585
 IR Inten    --     65.5323                36.4018                31.0254

                     49                     50                     51
                      A                      A                      A
 Frequencies --   3128.0371              3132.9482              3169.1776
 Red. masses --      1.1041                 1.0994                 1.0857
 Frc consts  --      6.3650                 6.3576                 6.4248
 IR Inten    --     22.6511                20.4419                 0.7610

                     52                     53                     54
                      A                      A                      A
 Frequencies --   3181.5722              3193.4883              3204.4312
 Red. masses --      1.0904                 1.0951                 1.0929
 Frc consts  --      6.5029                 6.5799                 6.6121
 IR Inten    --     13.4710                14.2561                 6.0640

 - Thermochemistry -
 -------------------
 Temperature   298.150 Kelvin.  Pressure   1.00000 Atm.
 Atom     1 has atomic number  6 and mass  12.00000

 Molecular mass:   138.06808 amu.
 Principal axes and moments of inertia in atomic units:
                           1         2         3
     Eigenvalues --  1095.641631278.474772270.46604
           X            0.99945   0.03199   0.00816
           Y           -0.03190   0.99943  -0.01134
           Z           -0.00852   0.01107   0.99990
 This molecule is an asymmetric top.
 Rotational symmetry number  1.
 Warning -- assumption of classical behavior for rotation
           may cause significant error
 Rotational temperatures (Kelvin)      0.07905     0.06775     0.03815
 Rotational constants (GHZ):           1.64720     1.41164     0.79488
 Zero-point vibrational energy     431955.0 (Joules/Mol)
                                  103.23972 (Kcal/Mol)
 Warning -- explicit consideration of  14 degrees of freedom as
           vibrations may cause significant error
 Vibrational temperatures:    117.88   131.20   193.19   232.93   298.42
          (Kelvin)            340.28   397.38   479.95   514.38   682.08
                              740.86   778.92   835.52   870.59  1073.68
                             1088.32  1102.55  1194.02  1235.02  1351.15
                             1405.23  1480.88  1514.74  1535.96  1628.87
                             1680.87  1682.15  1700.19  1719.00  1735.65
                             1789.42  1848.26  1866.34  1923.15  2104.38
                             2115.52  2138.28  2145.65  2149.15  2165.26
                             2171.75  2202.10  2332.75  2350.95  4324.11
                             4332.42  4409.57  4442.83  4500.54  4507.61
                             4559.73  4577.57  4594.71  4610.46

 Zero-point correction=                           0.164523 (Hartree/Particle)
 Thermal correction to Energy=                    0.174182
 Thermal correction to Enthalpy=                  0.175126
 Thermal correction to Gibbs Free Energy=         0.129601
 Sum of electronic and zero-point Energies=           -461.252035
 Sum of electronic and thermal Energies=              -461.242376
 Sum of electronic and thermal Enthalpies=            -461.241432
 Sum of electronic and thermal Free Energies=         -461.286958

                     E (Thermal)             CV                S
                      KCal/Mol        Cal/Mol-Kelvin    Cal/Mol-Kelvin
 Total                  109.301             35.790             95.817
 Electronic               0.000              0.000              0.000
 Translational            0.889              2.981             40.680
 Rotational               0.889              2.981             29.543
 Vibrational            107.524             29.828             25.594
 Vibration     1          0.600              1.962              3.844
 Vibration     2          0.602              1.955              3.634
 Vibration     3          0.613              1.919              2.884
 Vibration     4          0.622              1.889              2.528
 Vibration     5          0.641              1.829              2.066
 Vibration     6          0.655              1.785              1.829
 Vibration     7          0.678              1.717              1.557
 Vibration     8          0.715              1.608              1.243
 Vibration     9          0.733              1.560              1.133
 Vibration    10          0.831              1.308              0.726
 Vibration    11          0.870              1.217              0.622
 Vibration    12          0.896              1.159              0.562
 Vibration    13          0.937              1.073              0.484
 Vibration    14          0.964              1.021              0.441

 Optimization completed.
    -- Stationary point found.
 Normal termination of Gaussian 09 at Thu Jul 22 14:23:32 2021.
