 Gaussian 09, Revision D.01,
 Gaussian 09:  ES64L-G09RevD.01 24-Apr-2013

 ----------------------------------------------------------------------
 # opt freq b3lyp/6-311+g(d,p) geom=connectivity pop=(hirshfeld,chelpg,
 mbs,npa)
 ----------------------------------------------------------------------

 --------
 Chart2_1
 --------
 Symbolic Z-matrix:
 Charge =  0 Multiplicity = 1

 SCF Done:  E(RB3LYP) =  -528.446359520     A.U. after   12 cycles
 SCF Done:  E(RB3LYP) =  -528.446385831     A.U. after    9 cycles
 SCF Done:  E(RB3LYP) =  -528.446408328     A.U. after    7 cycles
 SCF Done:  E(RB3LYP) =  -528.446400978     A.U. after    8 cycles
 SCF Done:  E(RB3LYP) =  -528.446414119     A.U. after    8 cycles
 SCF Done:  E(RB3LYP) =  -528.446453505     A.U. after    8 cycles
 SCF Done:  E(RB3LYP) =  -528.446416817     A.U. after    8 cycles
 SCF Done:  E(RB3LYP) =  -528.443758598     A.U. after   10 cycles
 SCF Done:  E(RB3LYP) =  -528.446433935     A.U. after    8 cycles
 SCF Done:  E(RB3LYP) =  -528.446432978     A.U. after    8 cycles
 SCF Done:  E(RB3LYP) =  -528.446471075     A.U. after    3 cycles
 Optimization completed.
    -- Stationary point found.
 Normal termination of Gaussian 09 at Fri Jul 23 10:02:48 2021.

 ----------------------------------------------------------------------
 #N Geom=AllCheck Guess=TCheck SCRF=Check GenChk RB3LYP/6-311+G(d,p) Fr
 eq
 ----------------------------------------------------------------------

 Structure from the checkpoint file:  "//home/sweav003/CHB/CHActivation_Mkhalid/OtherCharges/G09-Chart2_1.com.o9446475.tmp/Gau-30823.chk"
 --------
 Chart2_1
 --------
 Charge =  0 Multiplicity = 1

 SCF Done:  E(RB3LYP) =  -528.446471075     A.U. after    1 cycles
 SCF Done:  E(RB3LYP) =  -528.446361703     A.U. after    9 cycles
 SCF Done:  E(RB3LYP) =  -528.446438458     A.U. after    8 cycles
 SCF Done:  E(RB3LYP) =  -528.446413565     A.U. after    6 cycles
 SCF Done:  E(RB3LYP) =  -528.446413570     A.U. after    7 cycles
 SCF Done:  E(RB3LYP) =  -528.446423855     A.U. after    8 cycles
 SCF Done:  E(RB3LYP) =  -528.446427604     A.U. after    7 cycles
 Optimization completed.
    -- Stationary point found.
 Normal termination of Gaussian 09 at Fri Jul 23 10:08:28 2021.

 ----------------------------------------------------------------------
 #N Geom=AllCheck Guess=TCheck SCRF=Check GenChk RB3LYP/6-311+G(d,p) Fr
 eq
 ----------------------------------------------------------------------

 Structure from the checkpoint file:  "//home/sweav003/CHB/CHActivation_Mkhalid/OtherCharges/G09-Chart2_1.com.o9446476.tmp/Gau-95890.chk"
 --------
 Chart2_1
 --------
 Charge =  0 Multiplicity = 1

                         Standard orientation:
 ---------------------------------------------------------------------
 Center     Atomic      Atomic             Coordinates (Angstroms)
 Number     Number       Type             X           Y           Z
 ---------------------------------------------------------------------
      1          7           0        0.000767   -0.000349   -0.248941
      2          6           0       -0.523495   -1.305614   -0.667848
      3          6           0       -1.647616   -1.831086    0.230171
      4          1           0        0.298379   -2.025953   -0.639769
      5          1           0       -0.866403   -1.274558   -1.719987
      6          6           0       -2.180605   -3.196276   -0.220016
      7          1           0       -1.267163   -1.896558    1.255594
      8          1           0       -2.476895   -1.114701    0.256340
      9          6           0       -3.291077   -3.736849    0.685713
     10          1           0       -2.554363   -3.120953   -1.248481
     11          1           0       -1.353706   -3.916671   -0.250086
     12          1           0       -3.648648   -4.711494    0.341860
     13          1           0       -2.938489   -3.856150    1.714966
     14          1           0       -4.149139   -3.057505    0.707938
     15          6           0       -0.866679    1.106236   -0.670128
     16          6           0       -0.765946    2.340064    0.231983
     17          1           0       -1.901260    0.753640   -0.649323
     18          1           0       -0.662091    1.390765   -1.720086
     19          6           0       -1.675796    3.486869   -0.223545
     20          1           0       -1.022602    2.041487    1.254447
     21          1           0        0.269442    2.698070    0.268454
     22          6           0       -1.596410    4.715594    0.687367
     23          1           0       -1.412819    3.775985   -1.248415
     24          1           0       -2.713211    3.132361   -0.265386
     25          1           0       -2.257308    5.514485    0.339548
     26          1           0       -1.886695    4.466514    1.712845
     27          1           0       -0.578879    5.117721    0.721248
     28          6           0        1.393122    0.197352   -0.669241
     29          6           0        2.411193   -0.506979    0.232943
     30          1           0        1.605063    1.269622   -0.647976
     31          1           0        1.537471   -0.121929   -1.719303
     32          6           0        3.859186   -0.292741   -0.222844
     33          1           0        2.281065   -0.135179    1.255353
     34          1           0        2.203328   -1.582605    0.269591
     35          6           0        4.883759   -0.976362    0.687477
     36          1           0        3.977686   -0.664973   -1.247786
     37          1           0        4.071317    0.782858   -0.264745
     38          1           0        5.905768   -0.807363    0.336847
     39          1           0        4.816943   -0.597674    1.712207
     40          1           0        4.720021   -2.058040    0.724498
 ---------------------------------------------------------------------

 SCF Done:  E(RB3LYP) =  -528.446427604     A.U. after    1 cycles
 Normal termination of Gaussian 09 at Fri Jul 23 10:22:52 2021.

 The electronic state is 1-A.
 Alpha  occ. eigenvalues --  -14.29850 -10.18756 -10.18755 -10.18753 -10.16531
 Alpha  occ. eigenvalues --  -10.16529 -10.16528 -10.16020 -10.16018 -10.16015
 Alpha  occ. eigenvalues --  -10.15758 -10.15757 -10.15756  -0.91879  -0.79714
 Alpha  occ. eigenvalues --   -0.79712  -0.78317  -0.72854  -0.72852  -0.69005
 Alpha  occ. eigenvalues --   -0.63552  -0.63546  -0.58962  -0.58010  -0.58005
 Alpha  occ. eigenvalues --   -0.56579  -0.48437  -0.48430  -0.47279  -0.45473
 Alpha  occ. eigenvalues --   -0.45466  -0.44449  -0.42389  -0.42385  -0.40916
 Alpha  occ. eigenvalues --   -0.40611  -0.40606  -0.38941  -0.37816  -0.37815
 Alpha  occ. eigenvalues --   -0.36895  -0.35288  -0.35283  -0.34061  -0.33847
 Alpha  occ. eigenvalues --   -0.33556  -0.33553  -0.33012  -0.32706  -0.32702
 Alpha  occ. eigenvalues --   -0.31563  -0.31556  -0.21282
 Alpha virt. eigenvalues --    0.00414   0.00969   0.00970   0.01408   0.02368
 Alpha virt. eigenvalues --    0.02371   0.02862   0.03583   0.03585   0.04525
 Alpha virt. eigenvalues --    0.04885   0.04888   0.05394   0.06368   0.06369

 Mulliken charges:
               1
     1  N    0.558463
     2  C   -0.678367
     3  C    0.140548
     4  H    0.134295
     5  H    0.129624
     6  C   -0.242081
     7  H    0.143112
     8  H    0.115265
     9  C   -0.602542
    10  H    0.136058
    11  H    0.135528
    12  H    0.136560
    13  H    0.134486
    14  H    0.133170
    15  C   -0.683558
    16  C    0.141651
    17  H    0.134230
    18  H    0.129774
    19  C   -0.240951
    20  H    0.142813
    21  H    0.115245
    22  C   -0.602980
    23  H    0.136018
    24  H    0.135484
    25  H    0.136533
    26  H    0.134511
    27  H    0.133212
    28  C   -0.682147
    29  C    0.141499
    30  H    0.134553
    31  H    0.129757
    32  C   -0.240795
    33  H    0.142967
    34  H    0.115241
    35  C   -0.602902
    36  H    0.136014
    37  H    0.135482
    38  H    0.136534
    39  H    0.134601
    40  H    0.133095
 Sum of Mulliken charges =   0.00000

 Dipole moment (field-independent basis, Debye):
    X=             -0.0004    Y=             -0.0016    Z=             -0.5175  Tot=              0.5175
 Quadrupole moment (field-independent basis, Debye-Ang):
   XX=            -88.0349   YY=            -88.0328   ZZ=            -90.5905
   XY=              0.0072   XZ=              0.0018   YZ=             -0.0062

  Exact polarizability: 169.284  -0.008 169.243  -0.010   0.013 138.927
 Approx polarizability: 209.381  -0.004 209.384   0.001   0.008 210.478

 ESP charges:
               1
     1  N   -0.559115
     2  C    0.190285
     3  C   -0.074585
     4  H    0.011687
     5  H   -0.022597
     6  C    0.177168
     7  H    0.008227
     8  H    0.048708
     9  C   -0.138162
    10  H   -0.050181
    11  H   -0.039563
    12  H    0.029350
    13  H    0.026488
    14  H    0.018852
    15  C    0.190667
    16  C   -0.063560
    17  H    0.011518
    18  H   -0.023922
    19  C    0.167946
    20  H    0.005643
    21  H    0.046302
    22  C   -0.136005
    23  H   -0.047967
    24  H   -0.038096
    25  H    0.029529
    26  H    0.026576
    27  H    0.017927
    28  C    0.195975
    29  C   -0.078614
    30  H    0.009799
    31  H   -0.023949
    32  C    0.178143
    33  H    0.008031
    34  H    0.050899
    35  C   -0.139500
    36  H   -0.050020
    37  H   -0.038945
    38  H    0.029313
    39  H    0.027602
    40  H    0.018146
 Sum of ESP charges =   0.00000

 Summary of Natural Population Analysis:

                                       Natural Population
                Natural  -----------------------------------------------
    Atom  No    Charge         Core      Valence    Rydberg      Total
 -----------------------------------------------------------------------
      N    1   -0.58259      1.99939     5.54276    0.04044     7.58259
      C    2   -0.16203      1.99923     4.14492    0.01787     6.16203
      C    3   -0.38951      1.99927     4.37562    0.01462     6.38951
      H    4    0.18954      0.00000     0.80773    0.00273     0.81046
      H    5    0.16442      0.00000     0.83277    0.00280     0.83558
      C    6   -0.38490      1.99931     4.37302    0.01256     6.38490
      H    7    0.19838      0.00000     0.79882    0.00280     0.80162
      H    8    0.18814      0.00000     0.80948    0.00237     0.81186
      C    9   -0.57090      1.99938     4.56254    0.00898     6.57090
      H   10    0.18822      0.00000     0.80954    0.00224     0.81178
      H   11    0.18735      0.00000     0.81043    0.00222     0.81265
      H   12    0.19890      0.00000     0.79986    0.00125     0.80110
      H   13    0.19370      0.00000     0.80452    0.00178     0.80630
      H   14    0.19285      0.00000     0.80539    0.00176     0.80715
      C   15   -0.16210      1.99923     4.14499    0.01788     6.16210
      C   16   -0.38945      1.99927     4.37554    0.01464     6.38945
      H   17    0.18955      0.00000     0.80772    0.00273     0.81045
      H   18    0.16455      0.00000     0.83265    0.00280     0.83545
      C   19   -0.38496      1.99931     4.37308    0.01256     6.38496
      H   20    0.19830      0.00000     0.79891    0.00279     0.80170
      H   21    0.18822      0.00000     0.80941    0.00237     0.81178
      C   22   -0.57089      1.99938     4.56253    0.00898     6.57089
      H   23    0.18821      0.00000     0.80955    0.00224     0.81179
      H   24    0.18733      0.00000     0.81044    0.00222     0.81267
      H   25    0.19888      0.00000     0.79987    0.00125     0.80112
      H   26    0.19369      0.00000     0.80452    0.00178     0.80631
      H   27    0.19286      0.00000     0.80538    0.00176     0.80714
      C   28   -0.16204      1.99923     4.14493    0.01788     6.16204
      C   29   -0.38949      1.99927     4.37558    0.01464     6.38949
      H   30    0.18955      0.00000     0.80773    0.00272     0.81045
      H   31    0.16452      0.00000     0.83268    0.00280     0.83548
      C   32   -0.38495      1.99931     4.37307    0.01257     6.38495
      H   33    0.19831      0.00000     0.79890    0.00279     0.80169
      H   34    0.18822      0.00000     0.80941    0.00237     0.81178
      C   35   -0.57089      1.99938     4.56253    0.00898     6.57089
      H   36    0.18820      0.00000     0.80956    0.00224     0.81180
      H   37    0.18735      0.00000     0.81042    0.00222     0.81265
      H   38    0.19889      0.00000     0.79987    0.00125     0.80111
      H   39    0.19370      0.00000     0.80452    0.00178     0.80630
      H   40    0.19285      0.00000     0.80539    0.00176     0.80715
 =======================================================================
   * Total *    0.00000     25.99098    79.74659    0.26244   106.00000

                      1                      2                      3
                      A                      A                      A
 Frequencies --     39.0316                40.4511                42.8426
 Red. masses --      3.1728                 3.3014                 2.8054
 Frc consts  --      0.0028                 0.0032                 0.0030
 IR Inten    --      0.0159                 0.0149                 0.0076

                      4                      5                      6
                      A                      A                      A
 Frequencies --     56.7891                61.5481                68.5843
 Red. masses --      1.5601                 1.5469                 1.5827
 Frc consts  --      0.0030                 0.0035                 0.0044
 IR Inten    --      0.0432                 0.0380                 0.0665

                      7                      8                      9
                      A                      A                      A
 Frequencies --    103.5602               117.9258               121.3083
 Red. masses --      2.7046                 2.2999                 2.3288
 Frc consts  --      0.0171                 0.0188                 0.0202
 IR Inten    --      0.0089                 0.0277                 0.0260

                     10                     11                     12
                      A                      A                      A
 Frequencies --    160.3676               162.6396               189.2337
 Red. masses --      2.6698                 2.6896                 2.1864
 Frc consts  --      0.0405                 0.0419                 0.0461
 IR Inten    --      0.2941                 0.2931                 0.0470

                     13                     14                     15
                      A                      A                      A
 Frequencies --    238.8633               239.8384               242.5871
 Red. masses --      1.1302                 1.1280                 1.1241
 Frc consts  --      0.0380                 0.0382                 0.0390
 IR Inten    --      0.0173                 0.0166                 0.0109

                     16                     17                     18
                      A                      A                      A
 Frequencies --    259.5328               290.2918               291.1898
 Red. masses --      3.8183                 2.4499                 2.4444
 Frc consts  --      0.1515                 0.1216                 0.1221
 IR Inten    --      0.1355                 0.1752                 0.1771

                     19                     20                     21
                      A                      A                      A
 Frequencies --    326.3781               407.6001               408.0220
 Red. masses --      2.5319                 3.0607                 3.0482
 Frc consts  --      0.1589                 0.2996                 0.2990
 IR Inten    --      1.6834                 0.7131                 0.7002

                     22                     23                     24
                      A                      A                      A
 Frequencies --    483.9787               522.4107               523.0427
 Red. masses --      2.7637                 2.9624                 2.9792
 Frc consts  --      0.3814                 0.4763                 0.4802
 IR Inten    --      4.5833                 2.5064                 2.4891

                     25                     26                     27
                      A                      A                      A
 Frequencies --    737.2374               738.4796               738.9345
 Red. masses --      1.0774                 1.0773                 1.0748
 Frc consts  --      0.3450                 0.3461                 0.3458
 IR Inten    --      2.8410                 2.8490                 2.9230

                     28                     29                     30
                      A                      A                      A
 Frequencies --    799.3670               803.8442               805.2098
 Red. masses --      1.2046                 1.1835                 1.1840
 Frc consts  --      0.4535                 0.4506                 0.4523
 IR Inten    --      0.1373                 0.1569                 0.1607

                     31                     32                     33
                      A                      A                      A
 Frequencies --    867.6314               908.0660               908.1934
 Red. masses --      3.5558                 1.8097                 1.8117
 Frc consts  --      1.5771                 0.8792                 0.8804
 IR Inten    --     12.6758                 7.7485                 7.7117

                     34                     35                     36
                      A                      A                      A
 Frequencies --    916.1287               943.7835               944.2318
 Red. masses --      1.7312                 1.2770                 1.2766
 Frc consts  --      0.8561                 0.6701                 0.6706
 IR Inten    --      2.4120                 4.4351                 4.4315

                     37                     38                     39
                      A                      A                      A
 Frequencies --    954.0192              1012.1571              1012.3281
 Red. masses --      1.2799                 3.1019                 3.1029
 Frc consts  --      0.6864                 1.8723                 1.8735
 IR Inten    --      1.5619                 0.4122                 0.4404

                     40                     41                     42
                      A                      A                      A
 Frequencies --   1025.4440              1058.2081              1058.9392
 Red. masses --      3.3893                 2.4062                 2.3911
 Frc consts  --      2.0998                 1.5875                 1.5797
 IR Inten    --      0.1034                 0.2718                 0.3536

                     43                     44                     45
                      A                      A                      A
 Frequencies --   1060.3573              1091.3749              1092.6882
 Red. masses --      2.3538                 2.2629                 2.2575
 Frc consts  --      1.5593                 1.5880                 1.5881
 IR Inten    --      0.6988                45.3839                44.9117

                     46                     47                     48
                      A                      A                      A
 Frequencies --   1122.7236              1128.5311              1128.7183
 Red. masses --      2.0841                 2.1726                 2.1704
 Frc consts  --      1.5478                 1.6302                 1.6291
 IR Inten    --      1.4290                 1.1358                 1.2998

                     49                     50                     51
                      A                      A                      A
 Frequencies --   1176.1252              1213.4065              1213.5330
 Red. masses --      1.8304                 2.1142                 2.1153
 Frc consts  --      1.4917                 1.8340                 1.8354
 IR Inten    --      6.6895                12.8659                13.2642

                     52                     53                     54
                      A                      A                      A
 Frequencies --   1258.2128              1263.5264              1264.3619
 Red. masses --      1.3157                 1.3845                 1.3852
 Frc consts  --      1.2272                 1.3023                 1.3046
 IR Inten    --      2.4422                 8.4014                 8.4361

                     55                     56                     57
                      A                      A                      A
 Frequencies --   1293.5933              1299.6984              1300.6311
 Red. masses --      1.2981                 1.3507                 1.3473
 Frc consts  --      1.2798                 1.3443                 1.3429
 IR Inten    --      1.2092                 5.0648                 4.9936

                     58                     59                     60
                      A                      A                      A
 Frequencies --   1325.0361              1327.2639              1327.3853
 Red. masses --      1.0526                 1.0971                 1.0939
 Frc consts  --      1.0889                 1.1387                 1.1356
 IR Inten    --      1.5910                 0.7874                 0.7885

                     61                     62                     63
                      A                      A                      A
 Frequencies --   1330.0303              1338.4525              1339.0054
 Red. masses --      1.1413                 1.2102                 1.2073
 Frc consts  --      1.1896                 1.2773                 1.2754
 IR Inten    --      0.8940                 7.4513                 7.1140

                     64                     65                     66
                      A                      A                      A
 Frequencies --   1382.9797              1384.5849              1385.3028
 Red. masses --      1.4579                 1.4723                 1.4818
 Frc consts  --      1.6429                 1.6630                 1.6754
 IR Inten    --      0.2400                 0.5572                 0.7020

                     67                     68                     69
                      A                      A                      A
 Frequencies --   1410.1225              1410.3688              1411.5621
 Red. masses --      1.3351                 1.3221                 1.2831
 Frc consts  --      1.5642                 1.5494                 1.5063
 IR Inten    --     10.3204                10.4502                 8.2873

                     70                     71                     72
                      A                      A                      A
 Frequencies --   1415.9812              1416.3363              1423.3383
 Red. masses --      1.2883                 1.3040                 1.4175
 Frc consts  --      1.5219                 1.5412                 1.6920
 IR Inten    --      3.9863                 6.1408                 0.9724

                     73                     74                     75
                      A                      A                      A
 Frequencies --   1487.6732              1488.8212              1489.1773
 Red. masses --      1.0722                 1.0704                 1.0713
 Frc consts  --      1.3981                 1.3980                 1.3998
 IR Inten    --      0.1553                 0.1736                 0.2728

                     76                     77                     78
                      A                      A                      A
 Frequencies --   1492.0878              1492.4748              1494.2116
 Red. masses --      1.0652                 1.0642                 1.0721
 Frc consts  --      1.3972                 1.3966                 1.4103
 IR Inten    --      1.5672                 1.6259                 0.1780

                     79                     80                     81
                      A                      A                      A
 Frequencies --   1499.4483              1499.5401              1499.6784
 Red. masses --      1.0399                 1.0398                 1.0398
 Frc consts  --      1.3776                 1.3775                 1.3778
 IR Inten    --      8.1431                 8.1970                 8.1751

                     82                     83                     84
                      A                      A                      A
 Frequencies --   1503.0992              1503.6874              1504.1566
 Red. masses --      1.0761                 1.0746                 1.0723
 Frc consts  --      1.4325                 1.4316                 1.4295
 IR Inten    --      0.9920                 1.6754                 1.9937

                     85                     86                     87
                      A                      A                      A
 Frequencies --   1512.8475              1514.9374              1515.6609
 Red. masses --      1.0952                 1.0938                 1.0939
 Frc consts  --      1.4769                 1.4790                 1.4806
 IR Inten    --     12.9008                 4.8238                 4.4694

                     88                     89                     90
                      A                      A                      A
 Frequencies --   2894.1297              2894.9787              2906.0915
 Red. masses --      1.0738                 1.0737                 1.0733
 Frc consts  --      5.2990                 5.3017                 5.3407
 IR Inten    --     25.8477                25.8909               192.0575

                     91                     92                     93
                      A                      A                      A
 Frequencies --   3002.7274              3002.7464              3002.8176
 Red. masses --      1.0589                 1.0590                 1.0590
 Frc consts  --      5.6253                 5.6256                 5.6259
 IR Inten    --      8.8795                21.6832                22.4195

                     94                     95                     96
                      A                      A                      A
 Frequencies --   3015.0713              3015.3119              3015.8849
 Red. masses --      1.0534                 1.0518                 1.0491
 Frc consts  --      5.6421                 5.6346                 5.6221
 IR Inten    --     28.7636                23.9030                11.9798

                     97                     98                     99
                      A                      A                      A
 Frequencies --   3019.2995              3019.4254              3019.8537
 Red. masses --      1.0460                 1.0467                 1.0487
 Frc consts  --      5.6182                 5.6223                 5.6345
 IR Inten    --     30.3956                32.7567                87.9108

                    100                    101                    102
                      A                      A                      A
 Frequencies --   3024.1121              3024.1903              3024.4230
 Red. masses --      1.0970                 1.0965                 1.0970
 Frc consts  --      5.9108                 5.9086                 5.9123
 IR Inten    --     11.6658                12.6469                 0.6530

                    103                    104                    105
                      A                      A                      A
 Frequencies --   3047.7117              3048.0100              3051.9150
 Red. masses --      1.0960                 1.0963                 1.0967
 Frc consts  --      5.9979                 6.0007                 6.0183
 IR Inten    --      0.2857                 0.5846                33.2757

                    106                    107                    108
                      A                      A                      A
 Frequencies --   3064.4692              3070.4425              3071.2313
 Red. masses --      1.0909                 1.0940                 1.0937
 Frc consts  --      6.0360                 6.0769                 6.0782
 IR Inten    --      5.7603                36.8051                31.8871

                    109                    110                    111
                      A                      A                      A
 Frequencies --   3079.4064              3080.2199              3080.2933
 Red. masses --      1.1024                 1.1016                 1.1018
 Frc consts  --      6.1590                 6.1580                 6.1591
 IR Inten    --     51.7396               116.5052               111.1091

                    112                    113                    114
                      A                      A                      A
 Frequencies --   3082.7870              3082.8608              3083.0643
 Red. masses --      1.1011                 1.1011                 1.1011
 Frc consts  --      6.1654                 6.1657                 6.1666
 IR Inten    --     44.4306                44.7175                49.4865

 - Thermochemistry -
 -------------------
 Temperature   298.150 Kelvin.  Pressure   1.00000 Atm.
 Atom     1 has atomic number  7 and mass  14.00307

 Molecular mass:   185.21435 amu.
 Principal axes and moments of inertia in atomic units:
                           1         2         3
     Eigenvalues --  4061.221224066.601667638.27404
           X            1.00000  -0.00207   0.00000
           Y            0.00207   1.00000   0.00001
           Z            0.00000  -0.00001   1.00000
 This molecule is an asymmetric top.
 Rotational symmetry number  1.
 Warning -- assumption of classical behavior for rotation
           may cause significant error
 Rotational temperatures (Kelvin)      0.02133     0.02130     0.01134
 Rotational constants (GHZ):           0.44438     0.44380     0.23628
 Zero-point vibrational energy     983249.2 (Joules/Mol)
                                  235.00220 (Kcal/Mol)
 Warning -- explicit consideration of  24 degrees of freedom as
           vibrations may cause significant error
 Vibrational temperatures:     56.16    58.20    61.64    81.71    88.55
          (Kelvin)             98.68   149.00   169.67   174.54   230.73
                              234.00   272.26   343.67   345.07   349.03
                              373.41   417.66   418.96   469.58   586.44
                              587.05   696.34   751.63   752.54  1060.72
                             1062.51  1063.16  1150.11  1156.55  1158.52
                             1248.33  1306.50  1306.69  1318.10  1357.89
                             1358.54  1372.62  1456.27  1456.51  1475.38
                             1522.52  1523.58  1525.62  1570.24  1572.13
                             1615.35  1623.70  1623.97  1692.18  1745.82
                             1746.00  1810.29  1817.93  1819.13  1861.19
                             1869.97  1871.32  1906.43  1909.63  1909.81
                             1913.61  1925.73  1926.53  1989.80  1992.11
                             1993.14  2028.85  2029.20  2030.92  2037.28
                             2037.79  2047.86  2140.43  2142.08  2142.59
                             2146.78  2147.34  2149.83  2157.37  2157.50
                             2157.70  2162.62  2163.47  2164.14  2176.65
                             2179.65  2180.70  4164.00  4165.22  4181.21
                             4320.25  4320.28  4320.38  4338.01  4338.36
                             4339.18  4344.09  4344.27  4344.89  4351.02
                             4351.13  4351.46  4384.97  4385.40  4391.02
                             4409.08  4417.68  4418.81  4430.57  4431.74
                             4431.85  4435.44  4435.54  4435.84

 Zero-point correction=                           0.374500 (Hartree/Particle)
 Thermal correction to Energy=                    0.392264
 Thermal correction to Enthalpy=                  0.393209
 Thermal correction to Gibbs Free Energy=         0.326965
 Sum of electronic and zero-point Energies=           -528.071928
 Sum of electronic and thermal Energies=              -528.054163
 Sum of electronic and thermal Enthalpies=            -528.053219
 Sum of electronic and thermal Free Energies=         -528.119463

                     E (Thermal)             CV                S
                      KCal/Mol        Cal/Mol-Kelvin    Cal/Mol-Kelvin
 Total                  246.150             63.285            139.422
 Electronic               0.000              0.000              0.000
 Translational            0.889              2.981             41.555
 Rotational               0.889              2.981             33.200
 Vibrational            244.372             57.323             64.666
 Vibration     1          0.594              1.981              5.308
 Vibration     2          0.594              1.981              5.237
 Vibration     3          0.595              1.980              5.123
 Vibration     4          0.596              1.975              4.566
 Vibration     5          0.597              1.973              4.407
 Vibration     6          0.598              1.969              4.194
 Vibration     7          0.605              1.946              3.386
 Vibration     8          0.608              1.934              3.134
 Vibration     9          0.609              1.931              3.079
 Vibration    10          0.622              1.891              2.545
 Vibration    11          0.623              1.888              2.519
 Vibration    12          0.633              1.855              2.235
 Vibration    13          0.657              1.781              1.811
 Vibration    14          0.657              1.779              1.804
 Vibration    15          0.659              1.775              1.784
 Vibration    16          0.668              1.747              1.665
 Vibration    17          0.686              1.692              1.472
 Vibration    18          0.687              1.690              1.467
 Vibration    19          0.710              1.623              1.278
 Vibration    20          0.772              1.454              0.935
 Vibration    21          0.773              1.453              0.934
 Vibration    22          0.840              1.286              0.699
 Vibration    23          0.877              1.200              0.604
 Vibration    24          0.878              1.199              0.603

 Normal termination of Gaussian 09 at Fri Jul 23 10:27:39 2021.
