 Gaussian 09, Revision D.01,
 Gaussian 09:  ES64L-G09RevD.01 24-Apr-2013

 ----------------------------------------------------------------------
 # opt freq=noraman b3lyp/6-311+g(d,p) pop=(npa,hirshfeld,chelpg,mbs) g
 eom=connectivity
 ----------------------------------------------------------------------

 -------------------
 Title Card Required
 -------------------
 Symbolic Z-matrix:
 Charge =  0 Multiplicity = 1

 SCF Done:  E(RB3LYP) =  -1226.79128711     A.U. after   15 cycles
 SCF Done:  E(RB3LYP) =  -1226.79375184     A.U. after   14 cycles
 SCF Done:  E(RB3LYP) =  -1226.79399414     A.U. after   13 cycles
 SCF Done:  E(RB3LYP) =  -1226.79401352     A.U. after   11 cycles
 SCF Done:  E(RB3LYP) =  -1226.79402374     A.U. after   11 cycles
 SCF Done:  E(RB3LYP) =  -1226.76418126     A.U. after   15 cycles
 SCF Done:  E(RB3LYP) =  -1226.79402492     A.U. after    8 cycles
 SCF Done:  E(RB3LYP) =  -1226.79547352     A.U. after   14 cycles
 SCF Done:  E(RB3LYP) =  -1226.80079438     A.U. after   16 cycles
 SCF Done:  E(RB3LYP) =  -1226.80084863     A.U. after   16 cycles
 SCF Done:  E(RB3LYP) =  -1226.80233614     A.U. after   13 cycles
 SCF Done:  E(RB3LYP) =  -1226.80291527     A.U. after   14 cycles
 SCF Done:  E(RB3LYP) =  -1226.80322581     A.U. after   13 cycles
 SCF Done:  E(RB3LYP) =  -1226.80322705     A.U. after   10 cycles
 Optimization completed.
    -- Stationary point found.
 Normal termination of Gaussian 09 at Tue Apr 23 12:00:27 2024.

 ----------------------------------------------------------------------
 #N Geom=AllCheck Guess=TCheck SCRF=Check GenChk RB3LYP/6-311+G(d,p) Fr
 eq
 ----------------------------------------------------------------------

 Structure from the checkpoint file:  "35.chk"
 -------------------
 Title Card Required
 -------------------
 Charge =  0 Multiplicity = 1

                         Standard orientation:
 ---------------------------------------------------------------------
 Center     Atomic      Atomic             Coordinates (Angstroms)
 Number     Number       Type             X           Y           Z
 ---------------------------------------------------------------------
      1          6           0        0.899252   -0.365898   -0.000073
      2          6           0       -0.399770   -0.861476   -0.000069
      3          6           0       -1.457182    0.039374    0.000229
      4          6           0       -1.226219    1.412892    0.000271
      5          6           0        0.078230    1.889087   -0.000257
      6          6           0        1.161987    1.008445   -0.000361
      7          1           0       -2.059494    2.103313    0.000436
      8          1           0       -0.576102   -1.928295    0.000050
      9          1           0        0.281005    2.952953   -0.000161
     10          8           0        2.414338    1.528934    0.000202
     11          1           0        3.062074    0.811335   -0.000143
     12         17           0       -3.105406   -0.570202   -0.000054
     13         17           0        2.260701   -1.483052    0.000040
 ---------------------------------------------------------------------

 SCF Done:  E(RB3LYP) =  -1226.80322705     A.U. after    2 cycles

 The electronic state is 1-A.
 Alpha  occ. eigenvalues -- -101.58244-101.56318 -19.17847 -10.26853 -10.25955
 Alpha  occ. eigenvalues --  -10.25187 -10.21249 -10.20597 -10.20199  -9.49685
 Alpha  occ. eigenvalues --   -9.47769  -7.26130  -7.25176  -7.25146  -7.24237
 Alpha  occ. eigenvalues --   -7.23241  -7.23221  -1.09439  -0.92126  -0.88969
 Alpha  occ. eigenvalues --   -0.84445  -0.77325  -0.74864  -0.65220  -0.62998
 Alpha  occ. eigenvalues --   -0.57934  -0.52995  -0.49858  -0.47600  -0.45954
 Alpha  occ. eigenvalues --   -0.45294  -0.42842  -0.41182  -0.39693  -0.38274
 Alpha  occ. eigenvalues --   -0.37506  -0.34985  -0.32740  -0.32712  -0.27922
 Alpha  occ. eigenvalues --   -0.24545
 Alpha virt. eigenvalues --   -0.04542  -0.02806  -0.02061  -0.00518   0.01078
 Alpha virt. eigenvalues --    0.01843   0.02336   0.04552   0.04756   0.04877
 Alpha virt. eigenvalues --    0.05615   0.07244   0.07552   0.07910   0.08099

 Mulliken charges:
               1
     1  C    1.135777
     2  C   -0.967324
     3  C    0.688118
     4  C   -0.782518
     5  C    0.137680
     6  C   -1.319000
     7  H    0.156026
     8  H    0.173498
     9  H    0.143754
    10  O   -0.201788
    11  H    0.240477
    12  Cl   0.322851
    13  Cl   0.272450
 Sum of Mulliken charges =   0.00000

 Dipole moment (field-independent basis, Debye):
    X=              0.7939    Y=              0.2986    Z=             -0.0005  Tot=              0.8482
 Quadrupole moment (field-independent basis, Debye-Ang):
   XX=            -65.9995   YY=            -63.5068   ZZ=            -68.6342
   XY=             -3.4200   XZ=             -0.0024   YZ=             -0.0005

  Exact polarizability: 135.184  -1.213 103.895   0.004   0.003  53.769
 Approx polarizability: 202.487  -0.154 169.646  -0.010  -0.002  80.359

 ESP charges:
               1
     1  C   -0.133733
     2  C   -0.001112
     3  C   -0.000465
     4  C   -0.026689
     5  C   -0.286154
     6  C    0.449213
     7  H    0.107102
     8  H    0.116767
     9  H    0.175673
    10  O   -0.579046
    11  H    0.394503
    12  Cl  -0.125305
    13  Cl  -0.090753
 Sum of ESP charges =   0.00000

 Summary of Natural Population Analysis:

                                       Natural Population
                Natural  -----------------------------------------------
    Atom  No    Charge         Core      Valence    Rydberg      Total
 -----------------------------------------------------------------------
      C    1   -0.08802      1.99852     4.06777    0.02173     6.08802
      C    2   -0.23528      1.99880     4.21447    0.02201     6.23528
      C    3   -0.05270      1.99857     4.03106    0.02307     6.05270
      C    4   -0.20865      1.99899     4.19122    0.01845     6.20865
      C    5   -0.22054      1.99907     4.20444    0.01703     6.22054
      C    6    0.28781      1.99859     3.68801    0.02558     5.71219
      H    7    0.22735      0.00000     0.77098    0.00166     0.77265
      H    8    0.24016      0.00000     0.75799    0.00186     0.75984
      H    9    0.22902      0.00000     0.76914    0.00184     0.77098
      O   10   -0.66684      1.99974     6.65397    0.01312     8.66684
      H   11    0.48292      0.00000     0.51215    0.00493     0.51708
     Cl   12    0.00636      9.99962     6.97397    0.02004    16.99364
     Cl   13   -0.00160      9.99963     6.98027    0.02170    17.00160
 =======================================================================
   * Total *    0.00000     33.99154    47.81543    0.19303    82.00000

                      1                      2                      3
                      A                      A                      A
 Frequencies --    123.5230               170.4067               197.4469
 Red. masses --      7.8249                 6.0162                18.7554
 Frc consts  --      0.0703                 0.1029                 0.4308
 IR Inten    --      0.0729                 0.0122                 0.5117

                      4                      5                      6
                      A                      A                      A
 Frequencies --    276.0044               338.4017               378.8392
 Red. masses --      8.0512                 7.4696                15.3866
 Frc consts  --      0.3614                 0.5040                 1.3011
 IR Inten    --      2.9503                 0.0592                 1.9124

                      7                      8                      9
                      A                      A                      A
 Frequencies --    398.9038               400.1002               448.1235
 Red. masses --      9.0516                 1.0999                 3.0897
 Frc consts  --      0.8486                 0.1037                 0.3656
 IR Inten    --      2.0234               109.6214                 0.1598

                     10                     11                     12
                      A                      A                      A
 Frequencies --    513.2182               565.6614               657.2260
 Red. masses --      4.6035                 3.8514                 7.9458
 Frc consts  --      0.7144                 0.7261                 2.0222
 IR Inten    --     14.3759                 5.9253                19.7404

                     13                     14                     15
                      A                      A                      A
 Frequencies --    696.2899               725.6450               829.9600
 Red. masses --      4.4011                 8.1292                 1.4396
 Frc consts  --      1.2572                 2.5220                 0.5843
 IR Inten    --      0.2796                69.6485                27.0162

                     16                     17                     18
                      A                      A                      A
 Frequencies --    860.0893               877.9681               959.4410
 Red. masses --      6.8055                 1.3957                 1.3144
 Frc consts  --      2.9662                 0.6339                 0.7129
 IR Inten    --     12.8536                23.8155                 0.2198

                     19                     20                     21
                      A                      A                      A
 Frequencies --   1059.8993              1104.6127              1155.9392
 Red. masses --      3.1405                 2.5523                 1.4059
 Frc consts  --      2.0787                 1.8348                 1.1068
 IR Inten    --     21.3942                13.8635                 3.6932

                     22                     23                     24
                      A                      A                      A
 Frequencies --   1208.0685              1266.7456              1308.5298
 Red. masses --      1.4773                 2.0520                 3.4353
 Frc consts  --      1.2703                 1.9400                 3.4656
 IR Inten    --    149.3903                36.1930                68.6085

                     25                     26                     27
                      A                      A                      A
 Frequencies --   1357.3671              1434.5243              1506.0189
 Red. masses --      2.1070                 3.4563                 2.8983
 Frc consts  --      2.2873                 4.1906                 3.8731
 IR Inten    --     24.9574                 3.1849               256.1390

                     28                     29                     30
                      A                      A                      A
 Frequencies --   1615.7821              1631.6929              3193.7489
 Red. masses --      6.4186                 6.7879                 1.0888
 Frc consts  --      9.8731                10.6479                 6.5433
 IR Inten    --     15.8894                 8.5487                 1.2162

                     31                     32                     33
                      A                      A                      A
 Frequencies --   3209.0758              3214.6658              3768.9656
 Red. masses --      1.0950                 1.0928                 1.0654
 Frc consts  --      6.6440                 6.6536                 8.9167
 IR Inten    --      0.3631                 0.8708                99.2597

 - Thermochemistry -
 -------------------
 Temperature   298.150 Kelvin.  Pressure   1.00000 Atm.
 Atom     1 has atomic number  6 and mass  12.00000

 Molecular mass:   161.96392 amu.
 Principal axes and moments of inertia in atomic units:
                           1         2         3
     Eigenvalues --   830.705272480.919083311.62432
           X            0.99999   0.00368   0.00000
           Y           -0.00368   0.99999   0.00000
           Z            0.00000   0.00000   1.00000
 This molecule is an asymmetric top.
 Rotational symmetry number  1.
 Warning -- assumption of classical behavior for rotation
           may cause significant error
 Rotational temperatures (Kelvin)      0.10427     0.03491     0.02615
 Rotational constants (GHZ):           2.17254     0.72745     0.54497
 Zero-point vibrational energy     224018.0 (Joules/Mol)
                                   53.54159 (Kcal/Mol)
 Warning -- explicit consideration of  11 degrees of freedom as
           vibrations may cause significant error
 Vibrational temperatures:    177.72   245.18   284.08   397.11   486.88
          (Kelvin)            545.06   573.93   575.65   644.75   738.41
                              813.86   945.60  1001.80  1044.04  1194.13
                             1237.48  1263.20  1380.42  1524.96  1589.29
                             1663.14  1738.14  1822.56  1882.68  1952.95
                             2063.96  2166.82  2324.75  2347.64  4595.09
                             4617.14  4625.18  5422.69

 Zero-point correction=                           0.085324 (Hartree/Particle)
 Thermal correction to Energy=                    0.093178
 Thermal correction to Enthalpy=                  0.094122
 Thermal correction to Gibbs Free Energy=         0.051986
 Sum of electronic and zero-point Energies=          -1226.717903
 Sum of electronic and thermal Energies=             -1226.710049
 Sum of electronic and thermal Enthalpies=           -1226.709105
 Sum of electronic and thermal Free Energies=        -1226.751241

                     E (Thermal)             CV                S
                      KCal/Mol        Cal/Mol-Kelvin    Cal/Mol-Kelvin
 Total                   58.470             29.446             88.684
 Electronic               0.000              0.000              0.000
 Translational            0.889              2.981             41.155
 Rotational               0.889              2.981             30.302
 Vibrational             56.693             23.485             17.226
 Vibration     1          0.610              1.929              3.045
 Vibration     2          0.626              1.879              2.431
 Vibration     3          0.637              1.843              2.157
 Vibration     4          0.678              1.718              1.558
 Vibration     5          0.719              1.599              1.220
 Vibration     6          0.749              1.515              1.044
 Vibration     7          0.765              1.472              0.967
 Vibration     8          0.766              1.470              0.962
 Vibration     9          0.807              1.365              0.801
 Vibration    10          0.868              1.221              0.626
 Vibration    11          0.922              1.106              0.513

 Optimization completed.
    -- Stationary point found.
 Normal termination of Gaussian 09 at Tue Apr 23 12:01:22 2024.
