 Gaussian 09, Revision D.01,
 Gaussian 09:  ES64L-G09RevD.01 24-Apr-2013

 ----------------------------------------------------------------------
 # opt freq=noraman b3lyp/6-311+g(d,p) pop=(npa,hirshfeld,chelpg,mbs) g
 eom=connectivity
 ----------------------------------------------------------------------

 -------------------
 Title Card Required
 -------------------
 Symbolic Z-matrix:
 Charge =  0 Multiplicity = 1

 SCF Done:  E(RB3LYP) =  -574.817816786     A.U. after   15 cycles
 SCF Done:  E(RB3LYP) =  -574.828113667     A.U. after   13 cycles
 SCF Done:  E(RB3LYP) =  -574.830043532     A.U. after   12 cycles
 SCF Done:  E(RB3LYP) =  -574.830706711     A.U. after   12 cycles
 SCF Done:  E(RB3LYP) =  -574.819155320     A.U. after   16 cycles
 SCF Done:  E(RB3LYP) =  -574.831897484     A.U. after   13 cycles
 SCF Done:  E(RB3LYP) =  -574.833021632     A.U. after   14 cycles
 SCF Done:  E(RB3LYP) =  -574.834682761     A.U. after   13 cycles
 SCF Done:  E(RB3LYP) =  -574.836379110     A.U. after   13 cycles
 SCF Done:  E(RB3LYP) =  -574.836744064     A.U. after   13 cycles
 SCF Done:  E(RB3LYP) =  -574.836766043     A.U. after   11 cycles
 SCF Done:  E(RB3LYP) =  -574.836778034     A.U. after   10 cycles
 SCF Done:  E(RB3LYP) =  -574.836778887     A.U. after   10 cycles
 SCF Done:  E(RB3LYP) =  -574.836779023     A.U. after    9 cycles
 SCF Done:  E(RB3LYP) =  -574.836779050     A.U. after    8 cycles
 Optimization completed.
    -- Stationary point found.
 Normal termination of Gaussian 09 at Tue Apr 23 12:02:44 2024.

 ----------------------------------------------------------------------
 #N Geom=AllCheck Guess=TCheck SCRF=Check GenChk RB3LYP/6-311+G(d,p) Fr
 eq
 ----------------------------------------------------------------------

 Structure from the checkpoint file:  "33.chk"
 -------------------
 Title Card Required
 -------------------
 Charge =  0 Multiplicity = 1

                         Standard orientation:
 ---------------------------------------------------------------------
 Center     Atomic      Atomic             Coordinates (Angstroms)
 Number     Number       Type             X           Y           Z
 ---------------------------------------------------------------------
      1          6           0        1.970087   -1.357237    0.000142
      2          6           0        0.627168   -1.010770    0.000164
      3          6           0        0.235529    0.335438    0.000081
      4          6           0        1.220281    1.329055   -0.000092
      5          6           0        2.566683    0.991510   -0.000120
      6          6           0        2.943823   -0.354914    0.000057
      7          1           0        2.283983   -2.393817    0.000195
      8          1           0        0.912997    2.367553   -0.000207
      9          1           0       -0.128725   -1.784874    0.000263
     10          6           0       -1.188437    0.758189    0.000094
     11          8           0       -1.562284    1.911078    0.000220
     12          8           0       -2.040801   -0.291381   -0.000094
     13          6           0       -3.453089    0.027367   -0.000127
     14          1           0       -3.674199    0.632406   -0.882404
     15          1           0       -3.674222    0.632495    0.882079
     16          6           0       -4.218464   -1.280067   -0.000081
     17          1           0       -5.292737   -1.076629   -0.000120
     18          1           0       -3.982795   -1.873165   -0.886697
     19          1           0       -3.982844   -1.873081    0.886605
     20          1           0        3.324898    1.768975   -0.000280
     21          8           0        4.248731   -0.751033   -0.000104
     22          1           0        4.826994    0.019398   -0.000324
 ---------------------------------------------------------------------

 SCF Done:  E(RB3LYP) =  -574.836779050     A.U. after    1 cycles

 The electronic state is 1-A.
 Alpha  occ. eigenvalues --  -19.17371 -19.16662 -19.10770 -10.30184 -10.25661
 Alpha  occ. eigenvalues --  -10.23137 -10.19307 -10.19288 -10.19149 -10.19066
 Alpha  occ. eigenvalues --  -10.18483 -10.17254  -1.10720  -1.08563  -1.01949
 Alpha  occ. eigenvalues --   -0.87372  -0.79114  -0.76912  -0.76053  -0.67093
 Alpha  occ. eigenvalues --   -0.64688  -0.61842  -0.57655  -0.56537  -0.54191
 Alpha  occ. eigenvalues --   -0.49796  -0.48929  -0.47291  -0.45875  -0.44200
 Alpha  occ. eigenvalues --   -0.43668  -0.42873  -0.42570  -0.40766  -0.40506
 Alpha  occ. eigenvalues --   -0.38721  -0.37374  -0.36344  -0.35234  -0.34861
 Alpha  occ. eigenvalues --   -0.30889  -0.28250  -0.27365  -0.24606
 Alpha virt. eigenvalues --   -0.05000  -0.02810  -0.01168   0.00405   0.01970
 Alpha virt. eigenvalues --    0.02400   0.03222   0.03435   0.04471   0.04574
 Alpha virt. eigenvalues --    0.05227   0.06413   0.06557   0.06996   0.08004

 Mulliken charges:
               1
     1  C    0.214555
     2  C   -0.470311
     3  C    1.319800
     4  C   -0.641223
     5  C    0.126551
     6  C   -0.472577
     7  H    0.132817
     8  H    0.149961
     9  H    0.146465
    10  C   -0.501290
    11  O   -0.280557
    12  O   -0.111591
    13  C    0.056540
    14  H    0.159180
    15  H    0.159180
    16  C   -0.544686
    17  H    0.147686
    18  H    0.146479
    19  H    0.146475
    20  H    0.111264
    21  O   -0.245595
    22  H    0.250877
 Sum of Mulliken charges =   0.00000

 Dipole moment (field-independent basis, Debye):
    X=              0.8133    Y=             -0.7849    Z=             -0.0007  Tot=              1.1303
 Quadrupole moment (field-independent basis, Debye-Ang):
   XX=            -54.1560   YY=            -73.6860   ZZ=            -72.8606
   XY=             11.5568   XZ=             -0.0016   YZ=             -0.0022

  Exact polarizability: 168.452  -2.486 118.874  -0.001  -0.002  70.026
 Approx polarizability: 227.571 -11.600 199.113  -0.003  -0.004 105.112

 ESP charges:
               1
     1  C   -0.251088
     2  C   -0.023797
     3  C   -0.192378
     4  C    0.043737
     5  C   -0.363752
     6  C    0.490801
     7  H    0.157142
     8  H    0.096639
     9  H    0.082070
    10  C    0.733327
    11  O   -0.577070
    12  O   -0.440946
    13  C    0.358909
    14  H   -0.002018
    15  H   -0.002012
    16  C   -0.231381
    17  H    0.045633
    18  H    0.069343
    19  H    0.069346
    20  H    0.139837
    21  O   -0.631404
    22  H    0.429061
 Sum of ESP charges =   0.00000

 Summary of Natural Population Analysis:

                                       Natural Population
                Natural  -----------------------------------------------
    Atom  No    Charge         Core      Valence    Rydberg      Total
 -----------------------------------------------------------------------
      C    1   -0.25679      1.99906     4.23983    0.01790     6.25679
      C    2   -0.14131      1.99911     4.12616    0.01604     6.14131
      C    3   -0.18832      1.99891     4.17122    0.01820     6.18832
      C    4   -0.13389      1.99911     4.11736    0.01743     6.13389
      C    5   -0.28747      1.99906     4.27087    0.01754     6.28747
      C    6    0.33705      1.99880     3.64027    0.02388     5.66295
      H    7    0.22266      0.00000     0.77563    0.00172     0.77734
      H    8    0.23234      0.00000     0.76592    0.00174     0.76766
      H    9    0.22672      0.00000     0.77166    0.00162     0.77328
      C   10    0.79899      1.99928     3.15418    0.04755     5.20101
      O   11   -0.61021      1.99975     6.59912    0.01134     8.61021
      O   12   -0.57088      1.99972     6.55367    0.01749     8.57088
      C   13   -0.03612      1.99922     4.01746    0.01944     6.03612
      H   14    0.18584      0.00000     0.81198    0.00217     0.81416
      H   15    0.18585      0.00000     0.81198    0.00217     0.81415
      C   16   -0.59247      1.99936     4.58454    0.00857     6.59247
      H   17    0.20761      0.00000     0.79120    0.00119     0.79239
      H   18    0.20504      0.00000     0.79333    0.00163     0.79496
      H   19    0.20504      0.00000     0.79333    0.00163     0.79496
      H   20    0.20595      0.00000     0.79205    0.00199     0.79405
      O   21   -0.66730      1.99975     6.65497    0.01258     8.66730
      H   22    0.47168      0.00000     0.52400    0.00432     0.52832
 =======================================================================
   * Total *    0.00000     23.99111    63.76077    0.24813    88.00000

                      1                      2                      3
                      A                      A                      A
 Frequencies --     45.5135                75.1952                85.9620
 Red. masses --      3.1755                 2.4876                 5.7425
 Frc consts  --      0.0039                 0.0083                 0.0250
 IR Inten    --      1.5985                 2.2918                 0.0751

                      4                      5                      6
                      A                      A                      A
 Frequencies --    102.0424               146.0808               247.6976
 Red. masses --      4.1328                 3.2650                 4.8433
 Frc consts  --      0.0254                 0.0411                 0.1751
 IR Inten    --      1.5228                 1.7934                 8.1282

                      7                      8                      9
                      A                      A                      A
 Frequencies --    255.0587               304.3753               307.7161
 Red. masses --      1.2820                 3.3921                 5.6553
 Frc consts  --      0.0491                 0.1852                 0.3155
 IR Inten    --      0.0300                14.0570                 3.5587

                     10                     11                     12
                      A                      A                      A
 Frequencies --    342.4583               379.4844               406.7613
 Red. masses --      1.2441                 5.3084                 3.9935
 Frc consts  --      0.0860                 0.4504                 0.3893
 IR Inten    --     99.7019                 4.9714                 9.7687

                     13                     14                     15
                      A                      A                      A
 Frequencies --    421.3975               506.4744               511.9587
 Red. masses --      3.0040                 4.6363                 2.7621
 Frc consts  --      0.3143                 0.7007                 0.4265
 IR Inten    --      1.2478                 2.7811                10.9402

                     16                     17                     18
                      A                      A                      A
 Frequencies --    624.9817               651.4285               687.9505
 Red. masses --      7.2123                 7.0868                 3.8983
 Frc consts  --      1.6598                 1.7719                 1.0870
 IR Inten    --     21.8965                 1.4614                11.5431

                     19                     20                     21
                      A                      A                      A
 Frequencies --    777.8167               814.1798               823.2472
 Red. masses --      4.1277                 1.1254                 6.4192
 Frc consts  --      1.4714                 0.4395                 2.5632
 IR Inten    --     41.9294                 1.0041                 9.2762

                     22                     23                     24
                      A                      A                      A
 Frequencies --    825.3970               860.1256               869.1301
 Red. masses --      1.3026                 1.8157                 5.3022
 Frc consts  --      0.5229                 0.7915                 2.3598
 IR Inten    --      2.2175                28.2327                10.3453

                     25                     26                     27
                      A                      A                      A
 Frequencies --    890.9291               974.3241               990.8250
 Red. masses --      2.9117                 1.3162                 1.3383
 Frc consts  --      1.3617                 0.7362                 0.7741
 IR Inten    --      1.8241                 0.7132                 0.1369

                     28                     29                     30
                      A                      A                      A
 Frequencies --   1026.6025              1037.7841              1120.8880
 Red. masses --      2.8458                 2.9069                 1.6276
 Frc consts  --      1.7671                 1.8446                 1.2049
 IR Inten    --      1.6204                39.6797               176.0253

                     31                     32                     33
                      A                      A                      A
 Frequencies --   1128.5631              1139.9647              1176.1491
 Red. masses --      2.4067                 2.7554                 1.5535
 Frc consts  --      1.8060                 2.1097                 1.2661
 IR Inten    --     63.6875                73.3449                 3.5669

                     34                     35                     36
                      A                      A                      A
 Frequencies --   1184.7613              1190.0806              1283.0073
 Red. masses --      1.2092                 1.2781                 4.9115
 Frc consts  --      1.0000                 1.0665                 4.7635
 IR Inten    --    285.3036                62.3089               619.3494

                     37                     38                     39
                      A                      A                      A
 Frequencies --   1287.7822              1297.0135              1333.0239
 Red. masses --      3.0935                 1.0953                 1.6245
 Frc consts  --      3.0226                 1.0856                 1.7008
 IR Inten    --     36.8768                 0.9888                15.1082

                     40                     41                     42
                      A                      A                      A
 Frequencies --   1368.0784              1398.7791              1427.8265
 Red. masses --      3.3105                 1.3056                 1.3908
 Frc consts  --      3.6506                 1.5051                 1.6705
 IR Inten    --     33.3016                11.8790                 9.5194

                     43                     44                     45
                      A                      A                      A
 Frequencies --   1463.7645              1487.1575              1499.1484
 Red. masses --      2.9625                 1.0384                 1.0482
 Frc consts  --      3.7398                 1.3531                 1.3879
 IR Inten    --     44.8696                 7.8143                 3.5855

                     46                     47                     48
                      A                      A                      A
 Frequencies --   1519.1635              1541.7469              1626.1438
 Red. masses --      1.0868                 2.7088                 6.2232
 Frc consts  --      1.4778                 3.7936                 9.6957
 IR Inten    --      8.8681                38.6674                12.0954

                     49                     50                     51
                      A                      A                      A
 Frequencies --   1647.9542              1756.3711              3035.8044
 Red. masses --      5.9530                12.2920                 1.0351
 Frc consts  --      9.5252                22.3412                 5.6205
 IR Inten    --    191.5711               314.8909                18.7778

                     52                     53                     54
                      A                      A                      A
 Frequencies --   3051.9885              3086.0469              3101.8745
 Red. masses --      1.0580                 1.1070                 1.1004
 Frc consts  --      5.8064                 6.2117                 6.2382
 IR Inten    --     17.5199                 2.0718                28.2246

                     55                     56                     57
                      A                      A                      A
 Frequencies --   3113.7406              3154.9681              3191.3581
 Red. masses --      1.1055                 1.0900                 1.0895
 Frc consts  --      6.3152                 6.3922                 6.5380
 IR Inten    --     39.8958                15.0891                 2.9508

                     58                     59                     60
                      A                      A                      A
 Frequencies --   3199.7507              3212.1323              3828.7157
 Red. masses --      1.0924                 1.0936                 1.0662
 Frc consts  --      6.5898                 6.6481                 9.2085
 IR Inten    --      2.0982                 1.8368                85.6269

 - Thermochemistry -
 -------------------
 Temperature   298.150 Kelvin.  Pressure   1.00000 Atm.
 Atom     1 has atomic number  6 and mass  12.00000

 Molecular mass:   166.06299 amu.
 Principal axes and moments of inertia in atomic units:
                           1         2         3
     Eigenvalues --   696.813474113.896724788.18757
           X            0.99980   0.01975   0.00000
           Y           -0.01975   0.99980  -0.00001
           Z            0.00000   0.00001   1.00000
 This molecule is an asymmetric top.
 Rotational symmetry number  1.
 Warning -- assumption of classical behavior for rotation
           may cause significant error
 Rotational temperatures (Kelvin)      0.12430     0.02105     0.01809
 Rotational constants (GHZ):           2.58999     0.43869     0.37692
 Zero-point vibrational energy     459645.0 (Joules/Mol)
                                  109.85779 (Kcal/Mol)
 Warning -- explicit consideration of  15 degrees of freedom as
           vibrations may cause significant error
 Vibrational temperatures:     65.48   108.19   123.68   146.82   210.18
          (Kelvin)            356.38   366.97   437.93   442.73   492.72
                              545.99   585.24   606.30   728.70   736.59
                              899.21   937.26   989.81  1119.10  1171.42
                             1184.47  1187.56  1237.53  1250.48  1281.85
                             1401.83  1425.57  1477.05  1493.14  1612.71
                             1623.75  1640.15  1692.21  1704.61  1712.26
                             1845.96  1852.83  1866.11  1917.92  1968.36
                             2012.53  2054.32  2106.03  2139.69  2156.94
                             2185.73  2218.23  2339.66  2371.04  2527.02
                             4367.84  4391.13  4440.13  4462.90  4479.97
                             4539.29  4591.65  4603.72  4621.54  5508.66

 Zero-point correction=                           0.175070 (Hartree/Particle)
 Thermal correction to Energy=                    0.186436
 Thermal correction to Enthalpy=                  0.187381
 Thermal correction to Gibbs Free Energy=         0.137043
 Sum of electronic and zero-point Energies=           -574.661710
 Sum of electronic and thermal Energies=              -574.650343
 Sum of electronic and thermal Enthalpies=            -574.649398
 Sum of electronic and thermal Free Energies=         -574.699736

                     E (Thermal)             CV                S
                      KCal/Mol        Cal/Mol-Kelvin    Cal/Mol-Kelvin
 Total                  116.991             42.220            105.944
 Electronic               0.000              0.000              0.000
 Translational            0.889              2.981             41.230
 Rotational               0.889              2.981             30.996
 Vibrational            115.213             36.258             33.718
 Vibration     1          0.595              1.979              5.003
 Vibration     2          0.599              1.966              4.013
 Vibration     3          0.601              1.959              3.750
 Vibration     4          0.604              1.948              3.415
 Vibration     5          0.617              1.907              2.723
 Vibration     6          0.661              1.767              1.747
 Vibration     7          0.665              1.754              1.695
 Vibration     8          0.695              1.665              1.393
 Vibration     9          0.698              1.659              1.375
 Vibration    10          0.722              1.591              1.201
 Vibration    11          0.749              1.514              1.041
 Vibration    12          0.772              1.456              0.938
 Vibration    13          0.784              1.424              0.887
 Vibration    14          0.862              1.236              0.642
 Vibration    15          0.867              1.224              0.629

 Optimization completed.
    -- Stationary point found.
 Normal termination of Gaussian 09 at Tue Apr 23 12:05:53 2024.
