 Gaussian 09, Revision D.01,
 Gaussian 09:  ES64L-G09RevD.01 24-Apr-2013

 ----------------------------------------------------------------------
 # opt freq b3lyp/6-311+g(d,p) geom=connectivity pop=(hirshfeld,chelpg,
 mbs,npa)
 ----------------------------------------------------------------------

 -------------------
 Title Card Required
 -------------------
 Symbolic Z-matrix:
 Charge =  0 Multiplicity = 1

 SCF Done:  E(RB3LYP) =  -311.149388019     A.U. after   12 cycles
 SCF Done:  E(RB3LYP) =  -311.163190626     A.U. after   10 cycles
 SCF Done:  E(RB3LYP) =  -311.165500261     A.U. after   10 cycles
 SCF Done:  E(RB3LYP) =  -311.165729735     A.U. after    9 cycles
 SCF Done:  E(RB3LYP) =  -311.165742495     A.U. after    8 cycles
 SCF Done:  E(RB3LYP) =  -311.165744909     A.U. after    8 cycles
 SCF Done:  E(RB3LYP) =  -311.165745275     A.U. after    7 cycles
 SCF Done:  E(RB3LYP) =  -311.165745398     A.U. after    7 cycles
 SCF Done:  E(RB3LYP) =  -311.165745441     A.U. after    6 cycles
 Optimization completed.
    -- Stationary point found.
 Normal termination of Gaussian 09 at Tue Nov  2 17:12:34 2021.

 ----------------------------------------------------------------------
 #N Geom=AllCheck Guess=TCheck SCRF=Check GenChk RB3LYP/6-311+G(d,p) Fr
 eq
 ----------------------------------------------------------------------

 Structure from the checkpoint file:  "Table2_1.chk"
 -------------------
 Title Card Required
 -------------------
 Charge =  0 Multiplicity = 1

                         Standard orientation:
 ---------------------------------------------------------------------
 Center     Atomic      Atomic             Coordinates (Angstroms)
 Number     Number       Type             X           Y           Z
 ---------------------------------------------------------------------
      1          6           0        0.306466    1.504748    0.415741
      2          6           0        1.513943    0.726000   -0.132642
      3          6           0        1.468241   -0.788725    0.068777
      4          6           0       -0.995397    1.237392   -0.360747
      5          6           0       -1.740788   -0.069457   -0.018224
      6          6           0       -0.857026   -1.266662    0.357568
      7          1           0        0.169871    1.295042    1.484769
      8          1           0        1.608380    0.937191   -1.204327
      9          1           0        1.557338   -1.028443    1.139928
     10          1           0       -0.754616    1.241093   -1.429028
     11          1           0       -2.374077   -0.339718   -0.869132
     12          1           0        0.535718    2.573439    0.347688
     13          1           0        2.434989    1.090088    0.340165
     14          1           0        2.312971   -1.255257   -0.444671
     15          1           0       -1.687387    2.071858   -0.206862
     16          1           0       -2.420173    0.099782    0.826713
     17          1           0       -1.433114   -2.190656    0.252467
     18          1           0       -0.549615   -1.195089    1.409969
     19          8           0        0.303385   -1.419888   -0.453815
 ---------------------------------------------------------------------

 SCF Done:  E(RB3LYP) =  -311.165745441     A.U. after    1 cycles

 The electronic state is 1-A.
 Alpha  occ. eigenvalues --  -19.11877 -10.21338 -10.21272 -10.16917 -10.16709
 Alpha  occ. eigenvalues --  -10.16612 -10.16583  -1.02985  -0.80315  -0.77825
 Alpha  occ. eigenvalues --   -0.68535  -0.67178  -0.58229  -0.56218  -0.49450
 Alpha  occ. eigenvalues --   -0.48672  -0.46586  -0.44744  -0.41557  -0.40463
 Alpha  occ. eigenvalues --   -0.40011  -0.37907  -0.35419  -0.33476  -0.32634
 Alpha  occ. eigenvalues --   -0.31734  -0.30658  -0.25484
 Alpha virt. eigenvalues --    0.00177   0.01766   0.01873   0.02584   0.04370
 Alpha virt. eigenvalues --    0.04417   0.05608   0.05683   0.05836   0.07608
 Alpha virt. eigenvalues --    0.08602   0.09040   0.09224   0.09596   0.10186

 Mulliken charges:
               1
     1  C   -0.179979
     2  C   -0.242861
     3  C   -0.261217
     4  C   -0.332909
     5  C   -0.221024
     6  C   -0.289125
     7  H    0.138372
     8  H    0.148135
     9  H    0.122987
    10  H    0.152053
    11  H    0.151902
    12  H    0.141063
    13  H    0.135185
    14  H    0.149700
    15  H    0.136480
    16  H    0.140771
    17  H    0.152463
    18  H    0.117109
    19  O   -0.159104
 Sum of Mulliken charges =   0.00000

 Dipole moment (field-independent basis, Debye):
    X=             -0.0473    Y=              1.0511    Z=              1.1022  Tot=              1.5238
 Quadrupole moment (field-independent basis, Debye-Ang):
   XX=            -43.1123   YY=            -47.6013   ZZ=            -46.0450
   XY=              0.8678   XZ=              0.0236   YZ=             -1.9001

  Exact polarizability:  81.493   1.146  74.531   0.050  -1.245  65.965
 Approx polarizability: 103.976   1.505  97.181  -0.457   0.229 100.611

 ESP charges:
               1
     1  C    0.038754
     2  C    0.000344
     3  C    0.219132
     4  C    0.074143
     5  C   -0.034502
     6  C    0.276482
     7  H   -0.011741
     8  H    0.016886
     9  H   -0.007977
    10  H   -0.012996
    11  H    0.015505
    12  H   -0.015283
    13  H   -0.022645
    14  H    0.015541
    15  H   -0.022003
    16  H   -0.019184
    17  H   -0.003830
    18  H   -0.016368
    19  O   -0.490258
 Sum of ESP charges =   0.00000

 Summary of Natural Population Analysis:

                                       Natural Population
                Natural  -----------------------------------------------
    Atom  No    Charge         Core      Valence    Rydberg      Total
 -----------------------------------------------------------------------
      C    1   -0.39219      1.99928     4.37732    0.01559     6.39219
      C    2   -0.40966      1.99927     4.39597    0.01442     6.40966
      C    3   -0.01842      1.99918     3.99611    0.02313     6.01842
      C    4   -0.38797      1.99928     4.37170    0.01699     6.38797
      C    5   -0.40781      1.99928     4.39345    0.01507     6.40781
      C    6   -0.02466      1.99920     4.00296    0.02250     6.02466
      H    7    0.18935      0.00000     0.80841    0.00224     0.81065
      H    8    0.19472      0.00000     0.80281    0.00246     0.80528
      H    9    0.15286      0.00000     0.84425    0.00290     0.84714
      H   10    0.19588      0.00000     0.80193    0.00219     0.80412
      H   11    0.19872      0.00000     0.79945    0.00183     0.80128
      H   12    0.20278      0.00000     0.79572    0.00150     0.79722
      H   13    0.20074      0.00000     0.79734    0.00192     0.79926
      H   14    0.18453      0.00000     0.81387    0.00159     0.81547
      H   15    0.19943      0.00000     0.79907    0.00151     0.80057
      H   16    0.19474      0.00000     0.80328    0.00198     0.80526
      H   17    0.18324      0.00000     0.81505    0.00171     0.81676
      H   18    0.15487      0.00000     0.84212    0.00301     0.84513
      O   19   -0.61117      1.99977     6.58874    0.02265     8.61117
 =======================================================================
   * Total *    0.00000     13.99527    41.84955    0.15518    56.00000

                      1                      2                      3
                      A                      A                      A
 Frequencies --     97.0073               172.9479               301.3400
 Red. masses --      1.9540                 1.9746                 4.3294
 Frc consts  --      0.0108                 0.0348                 0.2316
 IR Inten    --      1.1759                 0.6687                 4.4588

                      4                      5                      6
                      A                      A                      A
 Frequencies --    304.1705               361.9858               436.3120
 Red. masses --      1.7594                 3.1211                 2.1898
 Frc consts  --      0.0959                 0.2410                 0.2456
 IR Inten    --      0.7591                 0.2158                 2.4101

                      7                      8                      9
                      A                      A                      A
 Frequencies --    513.3781               574.1666               748.2234
 Red. masses --      1.5655                 2.4059                 1.4285
 Frc consts  --      0.2431                 0.4673                 0.4712
 IR Inten    --      1.7251                 8.1202                 1.1619

                     10                     11                     12
                      A                      A                      A
 Frequencies --    762.7247               841.4587               847.3254
 Red. masses --      2.3084                 2.6242                 2.6787
 Frc consts  --      0.7912                 1.0947                 1.1331
 IR Inten    --      2.7455                 3.3426                11.2329

                     13                     14                     15
                      A                      A                      A
 Frequencies --    886.5396               925.2748               985.9381
 Red. masses --      1.5224                 1.9047                 2.0762
 Frc consts  --      0.7050                 0.9608                 1.1891
 IR Inten    --      0.7809                 6.8281                25.9478

                     16                     17                     18
                      A                      A                      A
 Frequencies --   1009.4291              1038.1629              1044.8852
 Red. masses --      2.4692                 1.6095                 1.9157
 Frc consts  --      1.4824                 1.0221                 1.2323
 IR Inten    --     13.9428                 5.5262                 3.0895

                     19                     20                     21
                      A                      A                      A
 Frequencies --   1120.6815              1128.6471              1155.3956
 Red. masses --      2.1381                 2.4972                 3.6150
 Frc consts  --      1.5821                 1.8742                 2.8433
 IR Inten    --     16.1464                47.5517                69.6271

                     22                     23                     24
                      A                      A                      A
 Frequencies --   1207.4185              1240.3089              1272.8921
 Red. masses --      1.3118                 1.3157                 1.2038
 Frc consts  --      1.1268                 1.1925                 1.1492
 IR Inten    --      4.5256                 1.6921                 2.1392

                     25                     26                     27
                      A                      A                      A
 Frequencies --   1291.7793              1310.4477              1336.1555
 Red. masses --      1.2725                 1.1075                 1.1643
 Frc consts  --      1.2510                 1.1205                 1.2247
 IR Inten    --      9.6105                 6.0200                 3.7301

                     28                     29                     30
                      A                      A                      A
 Frequencies --   1366.5507              1378.4745              1386.9132
 Red. masses --      1.2957                 1.3720                 1.4002
 Frc consts  --      1.4256                 1.5360                 1.5868
 IR Inten    --      0.2479                 1.8068                 0.4434

                     31                     32                     33
                      A                      A                      A
 Frequencies --   1395.6639              1405.4510              1423.4118
 Red. masses --      1.3732                 1.2544                 1.2680
 Frc consts  --      1.5759                 1.4599                 1.5137
 IR Inten    --      0.8530                10.2939                 4.5143

                     34                     35                     36
                      A                      A                      A
 Frequencies --   1474.1858              1484.6302              1491.6740
 Red. masses --      1.0883                 1.0754                 1.0923
 Frc consts  --      1.3935                 1.3965                 1.4320
 IR Inten    --      3.4003                 2.3336                 5.7561

                     37                     38                     39
                      A                      A                      A
 Frequencies --   1493.5100              1501.3038              1512.4744
 Red. masses --      1.0807                 1.0886                 1.0933
 Frc consts  --      1.4203                 1.4457                 1.4736
 IR Inten    --      2.1370                10.7518                 6.8336

                     40                     41                     42
                      A                      A                      A
 Frequencies --   2961.0391              2983.5555              3002.4361
 Red. masses --      1.0715                 1.0684                 1.0652
 Frc consts  --      5.5349                 5.6033                 5.6574
 IR Inten    --     41.6809                37.6086                28.7060

                     43                     44                     45
                      A                      A                      A
 Frequencies --   3005.4267              3009.6812              3020.9395
 Red. masses --      1.0630                 1.0644                 1.0660
 Frc consts  --      5.6570                 5.6806                 5.7319
 IR Inten    --     31.0615                26.7715                18.7268

                     46                     47                     48
                      A                      A                      A
 Frequencies --   3039.9337              3043.8147              3048.2320
 Red. masses --      1.0985                 1.0938                 1.0959
 Frc consts  --      5.9810                 5.9705                 5.9994
 IR Inten    --     44.3458                24.7039                80.0321

                     49                     50                     51
                      A                      A                      A
 Frequencies --   3056.5384              3065.8229              3070.7186
 Red. masses --      1.0977                 1.1000                 1.0942
 Frc consts  --      6.0422                 6.0918                 6.0787
 IR Inten    --     55.7462                59.0728                60.9328

 - Thermochemistry -
 -------------------
 Temperature   298.150 Kelvin.  Pressure   1.00000 Atm.
 Atom     1 has atomic number  6 and mass  12.00000

 Molecular mass:   100.08882 amu.
 Principal axes and moments of inertia in atomic units:
                           1         2         3
     Eigenvalues --   556.38947 596.370671012.04009
           X            0.99453   0.10436   0.00307
           Y           -0.10427   0.99431  -0.02177
           Z           -0.00532   0.02133   0.99976
 This molecule is an asymmetric top.
 Rotational symmetry number  1.
 Warning -- assumption of classical behavior for rotation
           may cause significant error
 Rotational temperatures (Kelvin)      0.15567     0.14523     0.08558
 Rotational constants (GHZ):           3.24367     3.02621     1.78327
 Zero-point vibrational energy     457795.2 (Joules/Mol)
                                  109.41567 (Kcal/Mol)
 Warning -- explicit consideration of   8 degrees of freedom as
           vibrations may cause significant error
 Vibrational temperatures:    139.57   248.83   433.56   437.63   520.82
          (Kelvin)            627.75   738.64   826.10  1076.53  1097.39
                             1210.67  1219.11  1275.53  1331.26  1418.54
                             1452.34  1493.68  1503.35  1612.41  1623.87
                             1662.35  1737.20  1784.53  1831.41  1858.58
                             1885.44  1922.43  1966.16  1983.31  1995.46
                             2008.05  2022.13  2047.97  2121.02  2136.05
                             2146.18  2148.83  2160.04  2176.11  4260.27
                             4292.67  4319.83  4324.13  4330.25  4346.45
                             4373.78  4379.37  4385.72  4397.67  4411.03
                             4418.07

 Zero-point correction=                           0.174365 (Hartree/Particle)
 Thermal correction to Energy=                    0.181166
 Thermal correction to Enthalpy=                  0.182110
 Thermal correction to Gibbs Free Energy=         0.143712
 Sum of electronic and zero-point Energies=           -310.991380
 Sum of electronic and thermal Energies=              -310.984579
 Sum of electronic and thermal Enthalpies=            -310.983635
 Sum of electronic and thermal Free Energies=         -311.022034

                     E (Thermal)             CV                S
                      KCal/Mol        Cal/Mol-Kelvin    Cal/Mol-Kelvin
 Total                  113.684             26.241             80.817
 Electronic               0.000              0.000              0.000
 Translational            0.889              2.981             39.721
 Rotational               0.889              2.981             27.309
 Vibrational            111.906             20.279             13.787
 Vibration     1          0.603              1.951              3.514
 Vibration     2          0.626              1.876              2.403
 Vibration     3          0.693              1.671              1.409
 Vibration     4          0.695              1.666              1.394
 Vibration     5          0.736              1.551              1.114
 Vibration     6          0.797              1.391              0.838
 Vibration     7          0.868              1.220              0.626
 Vibration     8          0.930              1.087              0.496

 Normal termination of Gaussian 09 at Tue Nov  2 17:14:12 2021.
