 Gaussian 09, Revision D.01,
 Gaussian 09:  ES64L-G09RevD.01 24-Apr-2013

 ----------------------------------------------------------------------
 # opt freq=noraman b3lyp/6-311+g(d,p) pop=(npa,hirshfeld,chelpg,mbs) g
 eom=connectivity
 ----------------------------------------------------------------------

 -------------------
 Title Card Required
 -------------------
 Symbolic Z-matrix:
 Charge =  0 Multiplicity = 1

 SCF Done:  E(RB3LYP) =  -1132.47498622     A.U. after   16 cycles
 SCF Done:  E(RB3LYP) =  -1132.51442483     A.U. after   14 cycles
 SCF Done:  E(RB3LYP) =  -1132.52856658     A.U. after   16 cycles
 SCF Done:  E(RB3LYP) =  -1132.54007417     A.U. after   14 cycles
 SCF Done:  E(RB3LYP) =  -1132.54634969     A.U. after   14 cycles
 SCF Done:  E(RB3LYP) =  -1132.54915612     A.U. after   13 cycles
 SCF Done:  E(RB3LYP) =  -1132.54882368     A.U. after   15 cycles
 SCF Done:  E(RB3LYP) =  -1132.54984251     A.U. after   11 cycles
 SCF Done:  E(RB3LYP) =  -1132.54981654     A.U. after   14 cycles
 SCF Done:  E(RB3LYP) =  -1132.55043189     A.U. after   11 cycles
 SCF Done:  E(RB3LYP) =  -1132.55172005     A.U. after   16 cycles
 SCF Done:  E(RB3LYP) =  -1132.55197901     A.U. after   13 cycles
 SCF Done:  E(RB3LYP) =  -1132.55207001     A.U. after   14 cycles
 SCF Done:  E(RB3LYP) =  -1132.55209672     A.U. after   14 cycles
 SCF Done:  E(RB3LYP) =  -1132.55212825     A.U. after   13 cycles
 SCF Done:  E(RB3LYP) =  -1132.55213987     A.U. after   11 cycles
 SCF Done:  E(RB3LYP) =  -1132.55214472     A.U. after   11 cycles
 SCF Done:  E(RB3LYP) =  -1132.55214565     A.U. after   11 cycles
 SCF Done:  E(RB3LYP) =  -1132.55214574     A.U. after    9 cycles
 Optimization completed.
    -- Stationary point found.
 Normal termination of Gaussian 09 at Tue Apr 23 14:20:54 2024.

 ----------------------------------------------------------------------
 #N Geom=AllCheck Guess=TCheck SCRF=Check GenChk RB3LYP/6-311+G(d,p) Fr
 eq
 ----------------------------------------------------------------------

 Structure from the checkpoint file:  "74.chk"
 -------------------
 Title Card Required
 -------------------
 Charge =  0 Multiplicity = 1

                         Standard orientation:
 ---------------------------------------------------------------------
 Center     Atomic      Atomic             Coordinates (Angstroms)
 Number     Number       Type             X           Y           Z
 ---------------------------------------------------------------------
      1          6           0       -0.254052   -1.718659    1.137939
      2          1           0       -0.253856   -2.501845    0.372696
      3          7           0       -0.179769   -0.371952    0.556235
      4          6           0       -1.311215    0.239214    0.037404
      5          8           0       -1.321597    1.322235   -0.509037
      6          8           0       -2.393416   -0.546965    0.227169
      7          6           0       -3.739518   -0.126214   -0.223738
      8          6           0       -3.756303    0.032551   -1.745803
      9          1           0       -4.782560    0.210963   -2.078357
     10          1           0       -3.135005    0.867485   -2.065215
     11          1           0       -3.399207   -0.881305   -2.227788
     12          6           0       -4.610664   -1.307040    0.206563
     13          1           0       -4.567287   -1.445829    1.289233
     14          1           0       -5.650064   -1.125430   -0.076956
     15          1           0       -4.276716   -2.228602   -0.275391
     16          6           0       -4.163559    1.152588    0.502508
     17          1           0       -5.207343    1.373653    0.263098
     18          1           0       -4.086801    1.019739    1.584930
     19          1           0       -3.550148    2.001162    0.204410
     20          1           0       -1.165154   -1.812716    1.722582
     21          1           0        0.604256   -1.860114    1.793540
     22          6           0        1.105124    0.211205    0.355715
     23          6           0        1.325579    1.583700    0.526153
     24          6           0        2.181469   -0.617969    0.016709
     25          6           0        2.602194    2.106070    0.354462
     26          1           0        0.500784    2.232556    0.778058
     27          6           0        3.449459   -0.069025   -0.136773
     28          1           0        2.039063   -1.678064   -0.140702
     29          6           0        3.683436    1.289665    0.024829
     30          1           0        2.762288    3.169679    0.489071
     31         17           0        4.787999   -1.134816   -0.559257
     32          1           0        4.678542    1.695518   -0.100359
 ---------------------------------------------------------------------

 SCF Done:  E(RB3LYP) =  -1132.55214574     A.U. after    1 cycles

 The electronic state is 1-A.
 Alpha  occ. eigenvalues -- -101.55402 -19.16388 -19.09932 -14.36320 -10.32726
 Alpha  occ. eigenvalues --  -10.25328 -10.24237 -10.23331 -10.21307 -10.19130
 Alpha  occ. eigenvalues --  -10.18828 -10.18679 -10.18122 -10.17152 -10.16571
 Alpha  occ. eigenvalues --  -10.16467  -9.46861  -7.23316  -7.22345  -7.22316
 Alpha  occ. eigenvalues --   -1.11203  -1.02307  -0.96200  -0.89420  -0.84069
 Alpha  occ. eigenvalues --   -0.81978  -0.76523  -0.74697  -0.71722  -0.70433
 Alpha  occ. eigenvalues --   -0.70222  -0.66332  -0.61880  -0.60374  -0.54926
 Alpha  occ. eigenvalues --   -0.52577  -0.51992  -0.49932  -0.49618  -0.47616
 Alpha  occ. eigenvalues --   -0.47040  -0.45864  -0.45674  -0.44802  -0.43613
 Alpha  occ. eigenvalues --   -0.43069  -0.42175  -0.41394  -0.40384  -0.40055
 Alpha  occ. eigenvalues --   -0.39340  -0.38355  -0.37798  -0.37248  -0.36657
 Alpha  occ. eigenvalues --   -0.36154  -0.34664  -0.34189  -0.31859  -0.30907
 Alpha  occ. eigenvalues --   -0.29572  -0.28243  -0.25765  -0.23556
 Alpha virt. eigenvalues --   -0.02883  -0.02463  -0.00592   0.00428   0.01013
 Alpha virt. eigenvalues --    0.01606   0.02131   0.02579   0.02906   0.03136
 Alpha virt. eigenvalues --    0.03939   0.04208   0.04720   0.05025   0.05374

 Mulliken charges:
               1
     1  C   -0.268797
     2  H    0.161415
     3  N    0.027525
     4  C    0.105525
     5  O   -0.265727
     6  O    0.033109
     7  C   -0.245025
     8  C   -0.327786
     9  H    0.140037
    10  H    0.186414
    11  H    0.145289
    12  C   -0.426713
    13  H    0.153074
    14  H    0.149168
    15  H    0.154838
    16  C   -0.340380
    17  H    0.141403
    18  H    0.145800
    19  H    0.183657
    20  H    0.173759
    21  H    0.160463
    22  C   -1.046205
    23  C    0.014797
    24  C    0.286320
    25  C   -0.378627
    26  H    0.143490
    27  C    0.641385
    28  H    0.138103
    29  C   -0.612378
    30  H    0.133908
    31  Cl   0.346534
    32  H    0.145625
 Sum of Mulliken charges =   0.00000

 Dipole moment (field-independent basis, Debye):
    X=             -2.6841    Y=             -1.0170    Z=              1.3330  Tot=              3.1648
 Quadrupole moment (field-independent basis, Debye-Ang):
   XX=           -100.0573   YY=           -100.1709   ZZ=           -105.3351
   XY=              6.4955   XZ=              1.1621   YZ=              1.2373

  Exact polarizability: 230.646  -0.890 166.851  -7.315   2.315 120.303
 Approx polarizability: 292.681  -5.552 268.904 -14.038   2.773 180.763

 ESP charges:
               1
     1  C    0.003220
     2  H    0.055825
     3  N   -0.377589
     4  C    0.819039
     5  O   -0.587223
     6  O   -0.535640
     7  C    0.780639
     8  C   -0.346276
     9  H    0.064277
    10  H    0.086019
    11  H    0.069321
    12  C   -0.387547
    13  H    0.093577
    14  H    0.079117
    15  H    0.080691
    16  C   -0.360268
    17  H    0.061995
    18  H    0.067125
    19  H    0.104334
    20  H    0.059597
    21  H    0.040391
    22  C    0.249648
    23  C   -0.183880
    24  C   -0.137536
    25  C   -0.082051
    26  H    0.132475
    27  C    0.088576
    28  H    0.110208
    29  C   -0.111515
    30  H    0.105395
    31  Cl  -0.147025
    32  H    0.105078
 Sum of ESP charges =   0.00000

 Summary of Natural Population Analysis:

                                       Natural Population
                Natural  -----------------------------------------------
    Atom  No    Charge         Core      Valence    Rydberg      Total
 -----------------------------------------------------------------------
      C    1   -0.35700      1.99933     4.34540    0.01227     6.35700
      H    2    0.18901      0.00000     0.80911    0.00188     0.81099
      N    3   -0.51588      1.99922     5.49752    0.01913     7.51588
      C    4    0.94679      1.99934     3.00551    0.04836     5.05321
      O    5   -0.65065      1.99974     6.64050    0.01041     8.65065
      O    6   -0.60426      1.99969     6.58588    0.01868     8.60426
      C    7    0.27603      1.99911     3.70239    0.02248     5.72397
      C    8   -0.60584      1.99923     4.59527    0.01133     6.60584
      H    9    0.20624      0.00000     0.79250    0.00126     0.79376
      H   10    0.23302      0.00000     0.76545    0.00153     0.76698
      H   11    0.20582      0.00000     0.79280    0.00137     0.79418
      C   12   -0.58134      1.99924     4.57009    0.01201     6.58134
      H   13    0.20769      0.00000     0.79088    0.00143     0.79231
      H   14    0.20635      0.00000     0.79249    0.00116     0.79365
      H   15    0.20896      0.00000     0.78961    0.00143     0.79104
      C   16   -0.60601      1.99923     4.59548    0.01130     6.60601
      H   17    0.20681      0.00000     0.79192    0.00127     0.79319
      H   18    0.20516      0.00000     0.79346    0.00138     0.79484
      H   19    0.23165      0.00000     0.76678    0.00157     0.76835
      H   20    0.22079      0.00000     0.77773    0.00148     0.77921
      H   21    0.20279      0.00000     0.79568    0.00153     0.79721
      C   22    0.19175      1.99895     3.79022    0.01908     5.80825
      C   23   -0.20504      1.99906     4.18950    0.01649     6.20504
      C   24   -0.26023      1.99887     4.24491    0.01645     6.26023
      C   25   -0.17709      1.99916     4.16064    0.01728     6.17709
      H   26    0.23415      0.00000     0.76410    0.00175     0.76585
      C   27   -0.02529      1.99858     4.00361    0.02310     6.02529
      H   28    0.22698      0.00000     0.77126    0.00176     0.77302
      C   29   -0.24156      1.99895     4.22342    0.01919     6.24156
      H   30    0.21182      0.00000     0.78671    0.00147     0.78818
     Cl   31   -0.00513      9.99962     6.98602    0.01948    17.00513
      H   32    0.22349      0.00000     0.77488    0.00163     0.77651
 =======================================================================
   * Total *    0.00000     39.98733    87.69172    0.32095   128.00000

                      1                      2                      3
                      A                      A                      A
 Frequencies --     26.7982                36.3765                64.8053
 Red. masses --      5.0174                 3.9749                 4.0295
 Frc consts  --      0.0021                 0.0031                 0.0100
 IR Inten    --      0.4141                 0.5028                 4.4526

                      4                      5                      6
                      A                      A                      A
 Frequencies --     80.8788               117.3296               144.2673
 Red. masses --      4.3049                 3.7541                 3.1480
 Frc consts  --      0.0166                 0.0304                 0.0386
 IR Inten    --      0.9200                 0.3499                 0.6691

                      7                      8                      9
                      A                      A                      A
 Frequencies --    159.1130               174.6389               191.7348
 Red. masses --      1.9444                 2.8569                 3.3178
 Frc consts  --      0.0290                 0.0513                 0.0719
 IR Inten    --      2.2714                 2.8734                 0.2730

                     10                     11                     12
                      A                      A                      A
 Frequencies --    209.5167               231.1982               255.2011
 Red. masses --      1.0930                 3.2868                 1.1307
 Frc consts  --      0.0283                 0.1035                 0.0434
 IR Inten    --      0.0699                 1.4012                 0.1812

                     13                     14                     15
                      A                      A                      A
 Frequencies --    271.6606               273.5163               284.7888
 Red. masses --      1.1660                 2.6691                 4.0132
 Frc consts  --      0.0507                 0.1176                 0.1918
 IR Inten    --      0.0387                 0.8687                 2.5102

                     16                     17                     18
                      A                      A                      A
 Frequencies --    336.1467               350.1254               371.4540
 Red. masses --      3.9115                 2.5378                 3.2499
 Frc consts  --      0.2604                 0.1833                 0.2642
 IR Inten    --     15.8230                 1.1597                 0.8760

                     19                     20                     21
                      A                      A                      A
 Frequencies --    400.0699               424.4548               441.1978
 Red. masses --      5.8798                 3.1991                 4.0029
 Frc consts  --      0.5545                 0.3396                 0.4591
 IR Inten    --      3.6064                 4.3192                 1.8301

                     22                     23                     24
                      A                      A                      A
 Frequencies --    451.4939               458.6914               473.7164
 Red. masses --      3.2055                 2.9334                 2.9029
 Frc consts  --      0.3850                 0.3636                 0.3838
 IR Inten    --      5.9678                 3.7023                 2.6325

                     25                     26                     27
                      A                      A                      A
 Frequencies --    571.8369               604.0959               660.5782
 Red. masses --      5.3596                 4.8620                 5.4605
 Frc consts  --      1.0326                 1.0454                 1.4039
 IR Inten    --      2.6123                 4.0043                 2.6268

                     28                     29                     30
                      A                      A                      A
 Frequencies --    689.9730               707.2550               771.1260
 Red. masses --      4.1502                 2.6207                 4.6366
 Frc consts  --      1.1641                 0.7724                 1.6244
 IR Inten    --     10.1106                23.3274                20.3073

                     31                     32                     33
                      A                      A                      A
 Frequencies --    775.9799               791.2485               845.2795
 Red. masses --      6.9101                 1.5579                 6.5879
 Frc consts  --      2.4515                 0.5747                 2.7733
 IR Inten    --      4.7864                41.2990                67.9319

                     34                     35                     36
                      A                      A                      A
 Frequencies --    857.3096               878.1907               907.8879
 Red. masses --      3.9611                 1.4839                 1.4165
 Frc consts  --      1.7153                 0.6743                 0.6879
 IR Inten    --     58.3350                19.6119                 1.6770

                     37                     38                     39
                      A                      A                      A
 Frequencies --    925.4275               926.1045               970.4285
 Red. masses --      1.6415                 1.6361                 1.2009
 Frc consts  --      0.8283                 0.8268                 0.6663
 IR Inten    --      0.0195                 0.5706                 0.0807

                     40                     41                     42
                      A                      A                      A
 Frequencies --    986.7836               998.7594              1011.7569
 Red. masses --      1.3365                 3.1566                 5.9580
 Frc consts  --      0.7668                 1.8552                 3.5934
 IR Inten    --      0.6631                 5.6358                 7.3859

                     43                     44                     45
                      A                      A                      A
 Frequencies --   1050.9840              1057.7941              1098.7063
 Red. masses --      1.4090                 1.4614                 2.0847
 Frc consts  --      0.9170                 0.9634                 1.4827
 IR Inten    --      0.5881                 1.9352                15.2373

                     46                     47                     48
                      A                      A                      A
 Frequencies --   1114.5552              1133.5444              1147.9395
 Red. masses --      1.6971                 1.6447                 1.5127
 Frc consts  --      1.2421                 1.2451                 1.1745
 IR Inten    --     42.9959               165.1105               116.5038

                     49                     50                     51
                      A                      A                      A
 Frequencies --   1167.6121              1195.1846              1206.6460
 Red. masses --      3.7568                 1.1290                 2.3468
 Frc consts  --      3.0177                 0.9502                 2.0132
 IR Inten    --    589.6996                 7.9746                21.5405

                     52                     53                     54
                      A                      A                      A
 Frequencies --   1263.6331              1265.4829              1281.4739
 Red. masses --      3.1989                 2.7741                 2.7812
 Frc consts  --      3.0095                 2.6175                 2.6910
 IR Inten    --    147.3433                19.9781                24.9330

                     55                     56                     57
                      A                      A                      A
 Frequencies --   1317.8717              1338.7366              1361.7392
 Red. masses --      3.5510                 2.0818                 3.6922
 Frc consts  --      3.6337                 2.1982                 4.0339
 IR Inten    --      4.8403                36.4308               429.7563

                     58                     59                     60
                      A                      A                      A
 Frequencies --   1399.3909              1400.6148              1427.1486
 Red. masses --      1.2701                 1.2759                 1.2360
 Frc consts  --      1.4655                 1.4747                 1.4832
 IR Inten    --     21.8891                25.3373                23.6167

                     61                     62                     63
                      A                      A                      A
 Frequencies --   1457.9986              1468.0063              1471.0855
 Red. masses --      2.6848                 1.2280                 1.0457
 Frc consts  --      3.3626                 1.5592                 1.3333
 IR Inten    --     32.8551                60.0422                 0.3329

                     64                     65                     66
                      A                      A                      A
 Frequencies --   1490.6800              1492.5236              1495.3804
 Red. masses --      1.0463                 1.0505                 1.0602
 Frc consts  --      1.3698                 1.3788                 1.3968
 IR Inten    --      2.1285                 1.5180                25.7403

                     67                     68                     69
                      A                      A                      A
 Frequencies --   1497.0356              1504.7919              1512.3362
 Red. masses --      1.0690                 1.0526                 2.3332
 Frc consts  --      1.4116                 1.4043                 3.1441
 IR Inten    --     14.9461                 2.3928                85.3342

                     70                     71                     72
                      A                      A                      A
 Frequencies --   1522.2103              1527.3465              1608.4349
 Red. masses --      1.0822                 1.0581                 6.1825
 Frc consts  --      1.4774                 1.4544                 9.4236
 IR Inten    --     55.9080                28.8561                50.5721

                     73                     74                     75
                      A                      A                      A
 Frequencies --   1633.0494              1754.9369              3025.4442
 Red. masses --      6.0231                11.6161                 1.0490
 Frc consts  --      9.4638                21.0782                 5.6574
 IR Inten    --     85.2978               298.1649                37.1784

                     76                     77                     78
                      A                      A                      A
 Frequencies --   3033.8195              3034.9581              3042.3194
 Red. masses --      1.0362                 1.0368                 1.0376
 Frc consts  --      5.6194                 5.6266                 5.6585
 IR Inten    --     14.3156                20.1910                25.2204

                     79                     80                     81
                      A                      A                      A
 Frequencies --   3093.4100              3095.9960              3107.8980
 Red. masses --      1.1019                 1.1016                 1.1027
 Frc consts  --      6.2123                 6.2213                 6.2754
 IR Inten    --      8.0465                18.2437                29.2639

                     82                     83                     84
                      A                      A                      A
 Frequencies --   3109.9290              3110.3873              3138.7083
 Red. masses --      1.0985                 1.0916                 1.0998
 Frc consts  --      6.2597                 6.2221                 6.3834
 IR Inten    --     50.9565                15.2558                 1.5903

                     85                     86                     87
                      A                      A                      A
 Frequencies --   3142.3169              3156.4629              3177.8094
 Red. masses --      1.0992                 1.1023                 1.0889
 Frc consts  --      6.3947                 6.4706                 6.4789
 IR Inten    --     11.1600                10.1221                 8.3677

                     88                     89                     90
                      A                      A                      A
 Frequencies --   3206.5006              3211.2506              3235.4302
 Red. masses --      1.0939                 1.0913                 1.0930
 Frc consts  --      6.6266                 6.6307                 6.7409
 IR Inten    --      2.2843                 0.5603                 0.3947

 - Thermochemistry -
 -------------------
 Temperature   298.150 Kelvin.  Pressure   1.00000 Atm.
 Atom     1 has atomic number  6 and mass  12.00000

 Molecular mass:   241.08696 amu.
 Principal axes and moments of inertia in atomic units:
                           1         2         3
     Eigenvalues --  1499.610399056.059689782.54501
           X            0.99992   0.01166   0.00556
           Y           -0.01156   0.99978  -0.01737
           Z           -0.00576   0.01731   0.99983
 This molecule is an asymmetric top.
 Rotational symmetry number  1.
 Warning -- assumption of classical behavior for rotation
           may cause significant error
 Rotational temperatures (Kelvin)      0.05776     0.00956     0.00885
 Rotational constants (GHZ):           1.20347     0.19929     0.18449
 Zero-point vibrational energy     686038.7 (Joules/Mol)
                                  163.96718 (Kcal/Mol)
 Warning -- explicit consideration of  26 degrees of freedom as
           vibrations may cause significant error
 Vibrational temperatures:     38.56    52.34    93.24   116.37   168.81
          (Kelvin)            207.57   228.93   251.27   275.86   301.45
                              332.64   367.18   390.86   393.53   409.75
                              483.64   503.75   534.44   575.61   610.70
                              634.78   649.60   659.95   681.57   822.74
                              869.16   950.42   992.72  1017.58  1109.48
                             1116.46  1138.43  1216.17  1233.48  1263.52
                             1306.25  1331.48  1332.46  1396.23  1419.76
                             1436.99  1455.69  1512.13  1521.93  1580.79
                             1603.59  1630.92  1651.63  1679.93  1719.60
                             1736.09  1818.08  1820.75  1843.75  1896.12
                             1926.14  1959.24  2013.41  2015.17  2053.35
                             2097.73  2112.13  2116.56  2144.75  2147.41
                             2151.52  2153.90  2165.06  2175.91  2190.12
                             2197.51  2314.18  2349.59  2524.96  4352.93
                             4364.98  4366.62  4377.21  4450.72  4454.44
                             4471.57  4474.49  4475.15  4515.90  4521.09
                             4541.44  4572.15  4613.43  4620.27  4655.06

 Zero-point correction=                           0.261298 (Hartree/Particle)
 Thermal correction to Energy=                    0.277998
 Thermal correction to Enthalpy=                  0.278943
 Thermal correction to Gibbs Free Energy=         0.216349
 Sum of electronic and zero-point Energies=          -1132.290847
 Sum of electronic and thermal Energies=             -1132.274147
 Sum of electronic and thermal Enthalpies=           -1132.273203
 Sum of electronic and thermal Free Energies=        -1132.335797

                     E (Thermal)             CV                S
                      KCal/Mol        Cal/Mol-Kelvin    Cal/Mol-Kelvin
 Total                  174.447             62.690            131.739
 Electronic               0.000              0.000              0.000
 Translational            0.889              2.981             42.341
 Rotational               0.889              2.981             33.252
 Vibrational            172.669             56.728             56.147
 Vibration     1          0.593              1.984              6.053
 Vibration     2          0.594              1.982              5.447
 Vibration     3          0.597              1.971              4.305
 Vibration     4          0.600              1.962              3.869
 Vibration     5          0.608              1.935              3.144
 Vibration     6          0.616              1.909              2.746
 Vibration     7          0.621              1.892              2.560
 Vibration     8          0.627              1.874              2.385
 Vibration     9          0.634              1.851              2.211
 Vibration    10          0.642              1.826              2.048
 Vibration    11          0.653              1.793              1.870
 Vibration    12          0.666              1.754              1.694
 Vibration    13          0.675              1.725              1.586
 Vibration    14          0.676              1.722              1.574
 Vibration    15          0.683              1.702              1.505
 Vibration    16          0.717              1.603              1.230
 Vibration    17          0.727              1.575              1.166
 Vibration    18          0.743              1.531              1.074
 Vibration    19          0.766              1.470              0.962
 Vibration    20          0.786              1.417              0.877
 Vibration    21          0.801              1.380              0.823
 Vibration    22          0.810              1.358              0.791
 Vibration    23          0.817              1.342              0.770
 Vibration    24          0.831              1.308              0.727
 Vibration    25          0.928              1.092              0.501
 Vibration    26          0.963              1.023              0.443

 Optimization completed.
    -- Stationary point found.
 Normal termination of Gaussian 09 at Tue Apr 23 14:34:17 2024.
