 Gaussian 09, Revision D.01,
 Gaussian 09:  ES64L-G09RevD.01 24-Apr-2013

 ----------------------------------------------------------------------
 # opt=rcfc freq=noraman b3lyp/6-311+g(d,p) pop=(npa,hirshfeld,chelpg,m
 bs) geom=allcheck guess=read
 ----------------------------------------------------------------------

 Structure from the checkpoint file:  "91.chk"
 -------------------
 Title Card Required
 -------------------
 Charge =  0 Multiplicity = 1

 SCF Done:  E(RB3LYP) =  -661.723966353     A.U. after    1 cycles
 SCF Done:  E(RB3LYP) =  -661.723966591     A.U. after    9 cycles
 Optimization completed.
    -- Stationary point found.
 Normal termination of Gaussian 09 at Wed Apr 24 12:53:25 2024.

 ----------------------------------------------------------------------
 #N Geom=AllCheck Guess=TCheck SCRF=Check GenChk RB3LYP/6-311+G(d,p) Fr
 eq
 ----------------------------------------------------------------------

 Structure from the checkpoint file:  "91.chk"
 -------------------
 Title Card Required
 -------------------
 Charge =  0 Multiplicity = 1

                         Standard orientation:
 ---------------------------------------------------------------------
 Center     Atomic      Atomic             Coordinates (Angstroms)
 Number     Number       Type             X           Y           Z
 ---------------------------------------------------------------------
      1          6           0       -2.141066    0.000001   -0.002518
      2          6           0       -1.440887   -1.214365   -0.011357
      3          6           0       -0.052232   -1.211365   -0.026406
      4          6           0        0.640158    0.000016   -0.035743
      5          6           0       -0.052243    1.211387   -0.026405
      6          6           0       -1.440901    1.214372   -0.011358
      7          1           0       -1.986333   -2.149460   -0.008208
      8          1           0        0.490894   -2.147588   -0.039027
      9          1           0        0.490875    2.147614   -0.039024
     10          1           0       -1.986355    2.149463   -0.008209
     11          6           0        2.147490    0.000004    0.000042
     12          6           0       -3.572924   -0.000006    0.010786
     13          7           0       -4.727975   -0.000011    0.021638
     14          9           0        2.612511   -0.000358    1.273513
     15          9           0        2.669440    1.088052   -0.605301
     16          9           0        2.669424   -1.087720   -0.605906
 ---------------------------------------------------------------------

 SCF Done:  E(RB3LYP) =  -661.723966591     A.U. after    1 cycles

 The electronic state is 1-A.
 Alpha  occ. eigenvalues --  -24.73405 -24.73405 -24.72952 -14.33586 -10.45312
 Alpha  occ. eigenvalues --  -10.25485 -10.24260 -10.23150 -10.23094 -10.23092
 Alpha  occ. eigenvalues --  -10.22898 -10.22897  -1.33964  -1.25329  -1.24831
 Alpha  occ. eigenvalues --   -0.93867  -0.91615  -0.83794  -0.80475  -0.74815
 Alpha  occ. eigenvalues --   -0.68153  -0.66977  -0.61745  -0.61546  -0.60601
 Alpha  occ. eigenvalues --   -0.59257  -0.51934  -0.50319  -0.49278  -0.49258
 Alpha  occ. eigenvalues --   -0.47935  -0.46620  -0.45969  -0.45140  -0.43546
 Alpha  occ. eigenvalues --   -0.43446  -0.40730  -0.40609  -0.38500  -0.37880
 Alpha  occ. eigenvalues --   -0.36011  -0.30887  -0.30100
 Alpha virt. eigenvalues --   -0.09301  -0.06252  -0.01228   0.00696   0.00808
 Alpha virt. eigenvalues --    0.01494   0.02699   0.02908   0.03434   0.04025
 Alpha virt. eigenvalues --    0.04344   0.05698   0.06623   0.07039   0.07333

 Mulliken charges:
               1
     1  C    2.027314
     2  C   -0.356575
     3  C   -0.000552
     4  C   -0.697662
     5  C   -0.001388
     6  C   -0.356567
     7  H    0.151315
     8  H    0.155616
     9  H    0.155617
    10  H    0.151315
    11  C    0.865991
    12  C   -1.649618
    13  N   -0.165887
    14  F   -0.062650
    15  F   -0.108158
    16  F   -0.108110
 Sum of Mulliken charges =   0.00000

 Dipole moment (field-independent basis, Debye):
    X=              1.5554    Y=              0.0001    Z=             -0.1191  Tot=              1.5600
 Quadrupole moment (field-independent basis, Debye-Ang):
   XX=            -96.4767   YY=            -58.9811   ZZ=            -69.7666
   XY=              0.0000   XZ=             -0.0049   YZ=              0.0000

  Exact polarizability: 144.501   0.000  92.157  -0.437   0.000  56.725
 Approx polarizability: 219.571   0.000 155.060  -1.247   0.000  85.049

 ESP charges:
               1
     1  C    0.051621
     2  C   -0.110436
     3  C   -0.044141
     4  C   -0.082843
     5  C   -0.044136
     6  C   -0.110438
     7  H    0.118249
     8  H    0.109550
     9  H    0.109542
    10  H    0.118250
    11  C    0.700481
    12  C    0.353643
    13  N   -0.452526
    14  F   -0.245022
    15  F   -0.235888
    16  F   -0.235906
 Sum of ESP charges =   0.00000

 Summary of Natural Population Analysis:

                                       Natural Population
                Natural  -----------------------------------------------
    Atom  No    Charge         Core      Valence    Rydberg      Total
 -----------------------------------------------------------------------
      C    1   -0.16158      1.99887     4.14534    0.01737     6.16158
      C    2   -0.14524      1.99910     4.13055    0.01559     6.14524
      C    3   -0.17227      1.99907     4.15612    0.01707     6.17227
      C    4   -0.12363      1.99890     4.10651    0.01822     6.12363
      C    5   -0.17227      1.99907     4.15613    0.01707     6.17227
      C    6   -0.14524      1.99910     4.13055    0.01559     6.14524
      H    7    0.22828      0.00000     0.77045    0.00127     0.77172
      H    8    0.23327      0.00000     0.76513    0.00161     0.76673
      H    9    0.23327      0.00000     0.76512    0.00161     0.76673
      H   10    0.22828      0.00000     0.77045    0.00127     0.77172
      C   11    1.06641      1.99912     2.87422    0.06024     4.93359
      C   12    0.28258      1.99924     3.68408    0.03410     5.71742
      N   13   -0.29298      1.99959     5.27324    0.02016     7.29298
      F   14   -0.35251      1.99992     7.34619    0.00641     9.35251
      F   15   -0.35318      1.99992     7.34678    0.00648     9.35318
      F   16   -0.35318      1.99992     7.34678    0.00648     9.35318
 =======================================================================
   * Total *    0.00000     23.99181    61.76764    0.24055    86.00000

                      1                      2                      3
                      A                      A                      A
 Frequencies --     16.1354                71.1060               127.9975
 Red. masses --      6.1230                11.1978                11.6163
 Frc consts  --      0.0009                 0.0334                 0.1121
 IR Inten    --      0.0700                 4.8692                 8.0138

                      4                      5                      6
                      A                      A                      A
 Frequencies --    179.3474               214.1898               288.3157
 Red. masses --      9.9778                 7.4013                12.9477
 Frc consts  --      0.1891                 0.2001                 0.6341
 IR Inten    --      1.4881                 0.3387                 2.5024

                      7                      8                      9
                      A                      A                      A
 Frequencies --    330.9276               392.5779               408.1518
 Red. masses --      7.8256                 9.2873                 2.9646
 Frc consts  --      0.5049                 0.8433                 0.2910
 IR Inten    --      0.0797                 0.9962                 0.0021

                     10                     11                     12
                      A                      A                      A
 Frequencies --    467.3804               547.0398               551.2769
 Red. masses --      8.3438                 8.3826                 7.8201
 Frc consts  --      1.0739                 1.4780                 1.4002
 IR Inten    --      0.5482                10.9594                 5.5470

                     13                     14                     15
                      A                      A                      A
 Frequencies --    554.1994               583.2799               604.7626
 Red. masses --     12.5838                 7.8625                 3.2574
 Frc consts  --      2.2772                 1.5760                 0.7019
 IR Inten    --      0.1282                 0.2118                21.3841

                     16                     17                     18
                      A                      A                      A
 Frequencies --    657.3657               728.6452               759.3641
 Red. masses --      7.5137                11.9164                 4.0526
 Frc consts  --      1.9130                 3.7276                 1.3768
 IR Inten    --      0.9736                 5.9008                 0.9211

                     19                     20                     21
                      A                      A                      A
 Frequencies --    810.6603               855.3959               865.1392
 Red. masses --      7.3875                 1.2466                 1.6538
 Frc consts  --      2.8604                 0.5374                 0.7293
 IR Inten    --      0.1533                 0.1240                69.1000

                     22                     23                     24
                      A                      A                      A
 Frequencies --    985.1014               996.8422              1033.9704
 Red. masses --      1.3527                 1.3712                 3.7453
 Frc consts  --      0.7734                 0.8028                 2.3592
 IR Inten    --      0.6799                 0.1129                41.8531

                     25                     26                     27
                      A                      A                      A
 Frequencies --   1075.0583              1114.6879              1120.7121
 Red. masses --      4.0530                12.0226                 2.3481
 Frc consts  --      2.7599                 8.8014                 1.7376
 IR Inten    --    112.8766               280.2978               124.5619

                     28                     29                     30
                      A                      A                      A
 Frequencies --   1166.1880              1204.8899              1223.1874
 Red. masses --      2.5353                 1.3635                 2.5436
 Frc consts  --      2.0315                 1.1663                 2.2423
 IR Inten    --    118.5670                 4.6283                 0.1194

                     31                     32                     33
                      A                      A                      A
 Frequencies --   1316.5753              1324.5352              1340.1461
 Red. masses --      5.7445                 5.6156                 1.4574
 Frc consts  --      5.8667                 5.8046                 1.5422
 IR Inten    --    391.4711                 0.3718                 0.5839

                     34                     35                     36
                      A                      A                      A
 Frequencies --   1435.7406              1541.6323              1606.2643
 Red. masses --      2.7803                 2.4767                 6.8434
 Frc consts  --      3.3767                 3.4681                10.4029
 IR Inten    --     19.3522                 0.0046                 2.7369

                     37                     38                     39
                      A                      A                      A
 Frequencies --   1655.6572              2337.5528              3195.9681
 Red. masses --      5.7106                12.6788                 1.0895
 Frc consts  --      9.2231                40.8179                 6.5566
 IR Inten    --      4.7940                22.1913                 0.2168

                     40                     41                     42
                      A                      A                      A
 Frequencies --   3197.0366              3209.4440              3210.6335
 Red. masses --      1.0889                 1.0951                 1.0963
 Frc consts  --      6.5574                 6.6460                 6.6580
 IR Inten    --      0.1335                 0.4450                 0.0347

 - Thermochemistry -
 -------------------
 Temperature   298.150 Kelvin.  Pressure   1.00000 Atm.
 Atom     1 has atomic number  6 and mass  12.00000

 Molecular mass:   171.02958 amu.
 Principal axes and moments of inertia in atomic units:
                           1         2         3
     Eigenvalues --   639.160983872.247724191.48361
           X            1.00000   0.00000  -0.00009
           Y            0.00000   1.00000   0.00000
           Z            0.00009   0.00000   1.00000
 This molecule is an asymmetric top.
 Rotational symmetry number  1.
 Warning -- assumption of classical behavior for rotation
           may cause significant error
 Rotational temperatures (Kelvin)      0.13551     0.02237     0.02066
 Rotational constants (GHZ):           2.82361     0.46607     0.43057
 Zero-point vibrational energy     270984.6 (Joules/Mol)
                                   64.76687 (Kcal/Mol)
 Warning -- explicit consideration of  15 degrees of freedom as
           vibrations may cause significant error
 Vibrational temperatures:     23.22   102.31   184.16   258.04   308.17
          (Kelvin)            414.82   476.13   564.83   587.24   672.46
                              787.07   793.16   797.37   839.21   870.12
                              945.80  1048.36  1092.55  1166.36  1230.72
                             1244.74  1417.34  1434.23  1487.65  1546.77
                             1603.79  1612.45  1677.88  1733.57  1759.89
                             1894.26  1905.71  1928.17  2065.71  2218.06
                             2311.05  2382.12  3363.21  4598.28  4599.82
                             4617.67  4619.38

 Zero-point correction=                           0.103213 (Hartree/Particle)
 Thermal correction to Energy=                    0.112944
 Thermal correction to Enthalpy=                  0.113888
 Thermal correction to Gibbs Free Energy=         0.066091
 Sum of electronic and zero-point Energies=           -661.620754
 Sum of electronic and thermal Energies=              -661.611023
 Sum of electronic and thermal Enthalpies=            -661.610079
 Sum of electronic and thermal Free Energies=         -661.657875

                     E (Thermal)             CV                S
                      KCal/Mol        Cal/Mol-Kelvin    Cal/Mol-Kelvin
 Total                   70.873             35.986            100.596
 Electronic               0.000              0.000              0.000
 Translational            0.889              2.981             41.318
 Rotational               0.889              2.981             30.718
 Vibrational             69.096             30.025             28.560
 Vibration     1          0.593              1.986              7.061
 Vibration     2          0.598              1.968              4.123
 Vibration     3          0.611              1.925              2.976
 Vibration     4          0.629              1.868              2.335
 Vibration     5          0.644              1.819              2.008
 Vibration     6          0.685              1.695              1.484
 Vibration     7          0.713              1.614              1.256
 Vibration     8          0.760              1.486              0.990
 Vibration     9          0.773              1.453              0.933
 Vibration    10          0.825              1.322              0.745
 Vibration    11          0.902              1.146              0.550
 Vibration    12          0.907              1.137              0.542
 Vibration    13          0.910              1.131              0.536
 Vibration    14          0.940              1.067              0.479
 Vibration    15          0.963              1.022              0.442

 Optimization completed.
    -- Stationary point found.
 Normal termination of Gaussian 09 at Wed Apr 24 12:55:49 2024.
