 Gaussian 09, Revision D.01,
 Gaussian 09:  ES64L-G09RevD.01 24-Apr-2013

 ----------------------------------------------------------------------
 # opt freq b3lyp/6-311+g(d,p) geom=connectivity pop=(hirshfeld,chelpg,
 mbs,npa)
 ----------------------------------------------------------------------

 -------------------
 Title Card Required
 -------------------
 Symbolic Z-matrix:
 Charge =  0 Multiplicity = 1

 SCF Done:  E(RB3LYP) =  -846.562918728     A.U. after   14 cycles
 SCF Done:  E(RB3LYP) =  -846.565216264     A.U. after   12 cycles
 SCF Done:  E(RB3LYP) =  -846.565344303     A.U. after   10 cycles
 SCF Done:  E(RB3LYP) =  -846.565351661     A.U. after   10 cycles
 SCF Done:  E(RB3LYP) =  -846.565353489     A.U. after    9 cycles
 SCF Done:  E(RB3LYP) =  -846.565352712     A.U. after   11 cycles
 SCF Done:  E(RB3LYP) =  -846.565351562     A.U. after   11 cycles
 SCF Done:  E(RB3LYP) =  -846.559489346     A.U. after   13 cycles
 SCF Done:  E(RB3LYP) =  -846.565353494     A.U. after    4 cycles
 SCF Done:  E(RB3LYP) =  -846.565389223     A.U. after   12 cycles
 SCF Done:  E(RB3LYP) =  -846.567247717     A.U. after   12 cycles
 SCF Done:  E(RB3LYP) =  -846.568409355     A.U. after   13 cycles
 SCF Done:  E(RB3LYP) =  -846.572321936     A.U. after   14 cycles
 SCF Done:  E(RB3LYP) =  -846.573999311     A.U. after   13 cycles
 SCF Done:  E(RB3LYP) =  -846.574054886     A.U. after   13 cycles
 SCF Done:  E(RB3LYP) =  -846.574709929     A.U. after   12 cycles
 SCF Done:  E(RB3LYP) =  -846.574751697     A.U. after   11 cycles
 SCF Done:  E(RB3LYP) =  -846.574759291     A.U. after   10 cycles
 SCF Done:  E(RB3LYP) =  -846.574759811     A.U. after   10 cycles
 Optimization completed.
    -- Stationary point found.
 Normal termination of Gaussian 09 at Mon Jan  9 17:53:46 2023.

 ----------------------------------------------------------------------
 #N Geom=AllCheck Guess=TCheck SCRF=Check GenChk RB3LYP/6-311+G(d,p) Fr
 eq
 ----------------------------------------------------------------------

 Structure from the checkpoint file:  "Traceless4_Smith.chk"
 -------------------
 Title Card Required
 -------------------
 Charge =  0 Multiplicity = 1

                         Standard orientation:
 ---------------------------------------------------------------------
 Center     Atomic      Atomic             Coordinates (Angstroms)
 Number     Number       Type             X           Y           Z
 ---------------------------------------------------------------------
      1          6           0       -0.248006    0.908111   -0.002411
      2          6           0       -0.863056   -0.339834   -0.000761
      3          6           0       -0.052177   -1.471810   -0.002183
      4          6           0        1.331712   -1.355697   -0.004841
      5          6           0        1.944610   -0.092463   -0.005122
      6          6           0        1.129128    1.047227   -0.005369
      7          1           0       -0.515180   -2.450575   -0.000491
      8          1           0        1.942500   -2.251548   -0.011798
      9          1           0        1.550008    2.045753   -0.013090
     10          7           0        3.330286    0.029668   -0.064312
     11          1           0        3.717810    0.904186    0.256147
     12          1           0        3.860463   -0.769257    0.249140
     13         17           0       -2.606062   -0.475425    0.005527
     14          9           0       -1.001979    2.024755    0.000050
 ---------------------------------------------------------------------

 SCF Done:  E(RB3LYP) =  -846.574759811     A.U. after    1 cycles

 The electronic state is 1-A.
 Alpha  occ. eigenvalues -- -101.55643 -24.69937 -14.34109 -10.27685 -10.24018
 Alpha  occ. eigenvalues --  -10.23800 -10.19970 -10.19142 -10.18879  -9.47079
 Alpha  occ. eigenvalues --   -7.23565  -7.22548  -7.22520  -1.24029  -0.94541
 Alpha  occ. eigenvalues --   -0.89497  -0.83872  -0.77153  -0.73572  -0.64778
 Alpha  occ. eigenvalues --   -0.62633  -0.56619  -0.54991  -0.51014  -0.48821
 Alpha  occ. eigenvalues --   -0.48591  -0.48299  -0.45321  -0.42137  -0.40612
 Alpha  occ. eigenvalues --   -0.39872  -0.38135  -0.36786  -0.31896  -0.30825
 Alpha  occ. eigenvalues --   -0.26982  -0.22456
 Alpha virt. eigenvalues --   -0.03137  -0.01655  -0.01020   0.00345   0.01097
 Alpha virt. eigenvalues --    0.02139   0.04233   0.04659   0.05695   0.06299
 Alpha virt. eigenvalues --    0.07160   0.07371   0.08311   0.08772   0.10270

 Mulliken charges:
               1
     1  C   -1.180790
     2  C    1.384090
     3  C   -0.924753
     4  C    0.093765
     5  C   -0.354406
     6  C    0.379916
     7  H    0.153569
     8  H    0.110782
     9  H    0.119889
    10  N   -0.354192
    11  H    0.229600
    12  H    0.229537
    13  Cl   0.269103
    14  F   -0.156110
 Sum of Mulliken charges =   0.00000

 Dipole moment (field-independent basis, Debye):
    X=              4.0872    Y=             -1.0759    Z=              0.9061  Tot=              4.3225
 Quadrupole moment (field-independent basis, Debye-Ang):
   XX=            -51.2294   YY=            -55.1785   ZZ=            -62.3081
   XY=              1.8189   XZ=              3.9278   YZ=              0.1122

  Exact polarizability: 132.425   2.342  90.536  -0.183  -0.025  52.001
 Approx polarizability: 197.859   1.062 149.384  -1.038  -0.088  76.865

 ESP charges:
               1
     1  C    0.425384
     2  C   -0.075828
     3  C   -0.022436
     4  C   -0.348719
     5  C    0.458955
     6  C   -0.445773
     7  H    0.107306
     8  H    0.168989
     9  H    0.208345
    10  N   -0.790989
    11  H    0.332738
    12  H    0.330155
    13  Cl  -0.103202
    14  F   -0.244926
 Sum of ESP charges =   0.00000

 Summary of Natural Population Analysis:

                                       Natural Population
                Natural  -----------------------------------------------
    Atom  No    Charge         Core      Valence    Rydberg      Total
 -----------------------------------------------------------------------
      C    1    0.40988      1.99829     3.56383    0.02800     5.59012
      C    2   -0.13924      1.99847     4.11792    0.02285     6.13924
      C    3   -0.18810      1.99902     4.17016    0.01892     6.18810
      C    4   -0.25589      1.99907     4.24033    0.01649     6.25589
      C    5    0.17967      1.99903     3.80239    0.01891     5.82033
      C    6   -0.30703      1.99896     4.29239    0.01567     6.30703
      H    7    0.22432      0.00000     0.77391    0.00178     0.77568
      H    8    0.20882      0.00000     0.78937    0.00181     0.79118
      H    9    0.22322      0.00000     0.77463    0.00215     0.77678
      N   10   -0.78728      1.99943     5.77066    0.01720     7.78728
      H   11    0.37727      0.00000     0.62043    0.00231     0.62273
      H   12    0.37713      0.00000     0.62056    0.00231     0.62287
     Cl   13    0.01836      9.99963     6.96085    0.02116    16.98164
      F   14   -0.34113      1.99992     7.33352    0.00769     9.34113
 =======================================================================
   * Total *    0.00000     25.99182    47.83094    0.17724    74.00000

                      1                      2                      3
                      A                      A                      A
 Frequencies --    113.6651               220.1005               227.6917
 Red. masses --      6.3579                14.0628                 5.2130
 Frc consts  --      0.0484                 0.4014                 0.1592
 IR Inten    --      1.3319                 0.4188                 1.9725

                      4                      5                      6
                      A                      A                      A
 Frequencies --    292.1811               310.4272               311.8961
 Red. masses --      1.0632                 5.5978                 5.0975
 Frc consts  --      0.0535                 0.3178                 0.2922
 IR Inten    --     16.3999                 1.8793                 1.0559

                      7                      8                      9
                      A                      A                      A
 Frequencies --    382.3366               458.1579               501.5715
 Red. masses --      7.5760                 2.7736                 4.4047
 Frc consts  --      0.6525                 0.3430                 0.6529
 IR Inten    --      1.4306                20.6706                14.6676

                     10                     11                     12
                      A                      A                      A
 Frequencies --    528.1489               564.7296               631.2453
 Red. masses --      1.3844                 8.0083                 4.0817
 Frc consts  --      0.2275                 1.5048                 0.9583
 IR Inten    --    318.2011                 7.6400                10.4609

                     13                     14                     15
                      A                      A                      A
 Frequencies --    654.8022               702.6887               750.6037
 Red. masses --      5.8211                 3.1012                 6.6756
 Frc consts  --      1.4705                 0.9022                 2.2160
 IR Inten    --     16.0650                 1.1562                 8.6656

                     16                     17                     18
                      A                      A                      A
 Frequencies --    808.4000               846.7103               945.7561
 Red. masses --      1.4628                 1.6964                 1.3160
 Frc consts  --      0.5632                 0.7165                 0.6935
 IR Inten    --     26.7126                36.4119                 1.5551

                     19                     20                     21
                      A                      A                      A
 Frequencies --    972.9114              1064.6851              1103.0101
 Red. masses --      2.9706                 4.4697                 1.5316
 Frc consts  --      1.6567                 2.9852                 1.0979
 IR Inten    --     21.8513                21.2048                 4.4512

                     22                     23                     24
                      A                      A                      A
 Frequencies --   1167.6255              1195.6290              1266.7262
 Red. masses --      1.3713                 1.8815                 1.6433
 Frc consts  --      1.1015                 1.5847                 1.5536
 IR Inten    --     34.9724                92.3310                 5.3293

                     25                     26                     27
                      A                      A                      A
 Frequencies --   1333.6253              1343.0281              1474.4077
 Red. masses --      4.1292                 4.6392                 3.5879
 Frc consts  --      4.3269                 4.9302                 4.5955
 IR Inten    --     16.7485                54.9158                27.9044

                     28                     29                     30
                      A                      A                      A
 Frequencies --   1522.7759              1618.3415              1648.8110
 Red. masses --      3.0284                 7.4178                 2.8228
 Frc consts  --      4.1375                11.4463                 4.5213
 IR Inten    --    165.9506                49.3604                28.2852

                     31                     32                     33
                      A                      A                      A
 Frequencies --   1667.5468              3171.3154              3187.8179
 Red. masses --      1.4884                 1.0891                 1.0913
 Frc consts  --      2.4386                 6.4534                 6.5340
 IR Inten    --    176.9130                 9.6273                 2.3464

                     34                     35                     36
                      A                      A                      A
 Frequencies --   3199.4473              3577.4672              3676.4720
 Red. masses --      1.0937                 1.0473                 1.0999
 Frc consts  --      6.5961                 7.8974                 8.7590
 IR Inten    --      1.3676                33.8013                21.5991

 - Thermochemistry -
 -------------------
 Temperature   298.150 Kelvin.  Pressure   1.00000 Atm.
 Atom     1 has atomic number  6 and mass  12.00000

 Molecular mass:   145.00946 amu.
 Principal axes and moments of inertia in atomic units:
                           1         2         3
     Eigenvalues --   625.870041920.596862545.17642
           X            0.99999   0.00243   0.00357
           Y           -0.00243   1.00000   0.00019
           Z           -0.00357  -0.00020   0.99999
 This molecule is an asymmetric top.
 Rotational symmetry number  1.
 Warning -- assumption of classical behavior for rotation
           may cause significant error
 Rotational temperatures (Kelvin)      0.13839     0.04510     0.03403
 Rotational constants (GHZ):           2.88357     0.93968     0.70908
 Zero-point vibrational energy     259845.4 (Joules/Mol)
                                   62.10454 (Kcal/Mol)
 Warning -- explicit consideration of  11 degrees of freedom as
           vibrations may cause significant error
 Vibrational temperatures:    163.54   316.68   327.60   420.38   446.63
          (Kelvin)            448.75   550.10   659.19   721.65   759.89
                              812.52   908.22   942.11  1011.01  1079.95
                             1163.11  1218.23  1360.73  1399.80  1531.84
                             1586.98  1679.95  1720.24  1822.53  1918.79
                             1932.32  2121.34  2190.93  2328.43  2372.27
                             2399.22  4562.81  4586.55  4603.29  5147.17
                             5289.62

 Zero-point correction=                           0.098970 (Hartree/Particle)
 Thermal correction to Energy=                    0.106843
 Thermal correction to Enthalpy=                  0.107787
 Thermal correction to Gibbs Free Energy=         0.066269
 Sum of electronic and zero-point Energies=           -846.475790
 Sum of electronic and thermal Energies=              -846.467917
 Sum of electronic and thermal Enthalpies=            -846.466973
 Sum of electronic and thermal Free Energies=         -846.508491

                     E (Thermal)             CV                S
                      KCal/Mol        Cal/Mol-Kelvin    Cal/Mol-Kelvin
 Total                   67.045             30.136             87.381
 Electronic               0.000              0.000              0.000
 Translational            0.889              2.981             40.826
 Rotational               0.889              2.981             29.505
 Vibrational             65.267             24.175             17.051
 Vibration     1          0.607              1.938              3.205
 Vibration     2          0.647              1.810              1.958
 Vibration     3          0.651              1.799              1.897
 Vibration     4          0.688              1.688              1.461
 Vibration     5          0.699              1.654              1.360
 Vibration     6          0.700              1.651              1.352
 Vibration     7          0.752              1.508              1.030
 Vibration     8          0.816              1.343              0.771
 Vibration     9          0.857              1.247              0.654
 Vibration    10          0.883              1.188              0.591
 Vibration    11          0.921              1.108              0.514

 Optimization completed.
    -- Stationary point found.
 Normal termination of Gaussian 09 at Mon Jan  9 17:54:46 2023.
