 Gaussian 09, Revision D.01,
 Gaussian 09:  ES64L-G09RevD.01 24-Apr-2013

 ----------------------------------------------------------------------
 # opt=rcfc freq=noraman b3lyp/6-311+g(d,p) pop=(npa,hirshfeld,chelpg,m
 bs) geom=allcheck guess=read
 ----------------------------------------------------------------------

 Structure from the checkpoint file:  "ChemRevAminoAcids9_boc_Brimble.chk"
 -------------------
 Title Card Required
 -------------------
 Charge =  0 Multiplicity = 1

 SCF Done:  E(RB3LYP) =  -1109.91256721     A.U. after    1 cycles
 SCF Done:  E(RB3LYP) =  -1109.91256734     A.U. after    8 cycles
 Optimization completed.
    -- Stationary point found.
 Normal termination of Gaussian 09 at Thu Feb 15 08:53:21 2024.

 ----------------------------------------------------------------------
 #N Geom=AllCheck Guess=TCheck SCRF=Check GenChk RB3LYP/6-311+G(d,p) Fr
 eq
 ----------------------------------------------------------------------

 Structure from the checkpoint file:  "ChemRevAminoAcids9_boc_Brimble.chk"
 -------------------
 Title Card Required
 -------------------
 Charge =  0 Multiplicity = 1

                         Standard orientation:
 ---------------------------------------------------------------------
 Center     Atomic      Atomic             Coordinates (Angstroms)
 Number     Number       Type             X           Y           Z
 ---------------------------------------------------------------------
      1          6           0        3.605105   -1.358664    0.196706
      2          6           0        3.436768    0.032307   -0.058161
      3          6           0        4.543919    0.779721   -0.489266
      4          6           0        5.763979    0.140735   -0.661431
      5          6           0        5.905772   -1.236656   -0.409516
      6          6           0        4.830233   -2.002967    0.022709
      7          6           0        1.461691   -0.827890    0.612301
      8          6           0        2.057563    0.332181    0.217265
      9          1           0        4.449292    1.842097   -0.685953
     10          1           0        6.624729    0.709110   -0.994921
     11          1           0        6.871096   -1.708160   -0.553597
     12          1           0        4.943577   -3.063828    0.218281
     13          1           0        2.180542   -2.825827    0.803577
     14          7           0        2.381733   -1.858252    0.613000
     15          6           0        1.260857    1.596832    0.210339
     16          1           0        1.258040    2.040642    1.213878
     17          1           0        1.683376    2.345991   -0.461919
     18          6           0        0.022853   -0.914907    0.993415
     19          1           0       -0.380662   -1.910783    0.819461
     20          1           0       -0.114817   -0.690033    2.060398
     21          7           0       -0.744915    0.038054    0.174278
     22          6           0       -0.207427    1.341511   -0.240570
     23          1           0       -0.251258    1.394257   -1.329496
     24          6           0       -1.075612    2.475758    0.313805
     25          8           0       -1.645306    2.462069    1.375321
     26          8           0       -1.047440    3.533298   -0.516801
     27          6           0       -1.799448    4.686705   -0.094695
     28          1           0       -1.663689    5.425724   -0.881157
     29          1           0       -2.853449    4.428038    0.011848
     30          1           0       -1.421760    5.062897    0.857205
     31          6           0       -2.008242   -0.239383   -0.279075
     32          8           0       -2.633074    0.522667   -0.995646
     33          8           0       -2.450615   -1.439529    0.160438
     34          6           0       -3.798086   -1.937123   -0.194143
     35          6           0       -3.908997   -2.123225   -1.709174
     36          1           0       -4.858800   -2.610923   -1.945650
     37          1           0       -3.867358   -1.167297   -2.228362
     38          1           0       -3.100419   -2.761732   -2.075025
     39          6           0       -4.867972   -0.993167    0.359562
     40          1           0       -5.855393   -1.438195    0.208104
     41          1           0       -4.723636   -0.841983    1.432265
     42          1           0       -4.839059   -0.025891   -0.138867
     43          6           0       -3.846287   -3.287494    0.522185
     44          1           0       -4.811434   -3.768730    0.346767
     45          1           0       -3.059551   -3.949988    0.153297
     46          1           0       -3.715634   -3.157679    1.598885
 ---------------------------------------------------------------------

 SCF Done:  E(RB3LYP) =  -1109.91256734     A.U. after    1 cycles

 The electronic state is 1-A.
 Alpha  occ. eigenvalues --  -19.17115 -19.15777 -19.11187 -19.09158 -14.36633
 Alpha  occ. eigenvalues --  -14.35000 -10.31748 -10.30037 -10.24827 -10.23159
 Alpha  occ. eigenvalues --  -10.22775 -10.22546 -10.21367 -10.21233 -10.19378
 Alpha  occ. eigenvalues --  -10.17906 -10.17831 -10.17439 -10.17272 -10.17151
 Alpha  occ. eigenvalues --  -10.16872 -10.16824 -10.16084 -10.15879  -1.11232
 Alpha  occ. eigenvalues --   -1.10352  -1.02517  -1.01534  -0.99325  -0.94957
 Alpha  occ. eigenvalues --   -0.84885  -0.82729  -0.80947  -0.79149  -0.75974
 Alpha  occ. eigenvalues --   -0.74414  -0.72981  -0.70031  -0.69685  -0.69231
 Alpha  occ. eigenvalues --   -0.67284  -0.62563  -0.62066  -0.59772  -0.57275
 Alpha  occ. eigenvalues --   -0.56997  -0.54569  -0.54016  -0.52637  -0.51547
 Alpha  occ. eigenvalues --   -0.50013  -0.48929  -0.48747  -0.47895  -0.47451
 Alpha  occ. eigenvalues --   -0.46658  -0.46284  -0.45207  -0.44571  -0.44383
 Alpha  occ. eigenvalues --   -0.43943  -0.43771  -0.43296  -0.42009  -0.41966
 Alpha  occ. eigenvalues --   -0.41536  -0.40355  -0.39814  -0.39585  -0.38735
 Alpha  occ. eigenvalues --   -0.38065  -0.37520  -0.37317  -0.36435  -0.36001
 Alpha  occ. eigenvalues --   -0.35579  -0.35346  -0.34322  -0.34131  -0.34056
 Alpha  occ. eigenvalues --   -0.31157  -0.30057  -0.28664  -0.28332  -0.27551
 Alpha  occ. eigenvalues --   -0.25305  -0.23199  -0.21105
 Alpha virt. eigenvalues --   -0.02495  -0.01304   0.00131   0.00338   0.00539
 Alpha virt. eigenvalues --    0.00641   0.01278   0.01844   0.02422   0.02852
 Alpha virt. eigenvalues --    0.03171   0.03200   0.03461   0.03842   0.04076

 Mulliken charges:
               1
     1  C   -0.361825
     2  C    1.290264
     3  C   -0.464908
     4  C   -0.255443
     5  C   -0.179077
     6  C   -0.711432
     7  C   -0.440940
     8  C    1.140475
     9  H    0.112714
    10  H    0.120982
    11  H    0.121670
    12  H    0.105532
    13  H    0.279032
    14  N   -0.076665
    15  C   -0.315845
    16  H    0.193492
    17  H    0.168209
    18  C   -0.537091
    19  H    0.178699
    20  H    0.201741
    21  N    0.273986
    22  C   -1.078886
    23  H    0.229113
    24  C   -0.023323
    25  O   -0.169254
    26  O   -0.002220
    27  C   -0.165321
    28  H    0.149459
    29  H    0.166526
    30  H    0.158600
    31  C    0.023524
    32  O   -0.224585
    33  O    0.041799
    34  C   -0.230097
    35  C   -0.330675
    36  H    0.138974
    37  H    0.184672
    38  H    0.143850
    39  C   -0.337017
    40  H    0.139039
    41  H    0.149564
    42  H    0.186777
    43  C   -0.452492
    44  H    0.149885
    45  H    0.150499
    46  H    0.158018
 Sum of Mulliken charges =   0.00000

 Dipole moment (field-independent basis, Debye):
    X=              0.1189    Y=             -2.2299    Z=              0.3757  Tot=              2.2644
 Quadrupole moment (field-independent basis, Debye-Ang):
   XX=           -141.5386   YY=           -119.5502   ZZ=           -150.1167
   XY=              2.8690   XZ=              0.4592   YZ=             -4.9648

  Exact polarizability: 313.789  -4.884 245.113 -16.059 -12.598 169.391
 Approx polarizability: 408.547   1.458 367.066 -31.598 -33.418 278.847

 ESP charges:
               1
     1  C    0.346569
     2  C    0.027094
     3  C   -0.180617
     4  C   -0.123763
     5  C   -0.090755
     6  C   -0.263136
     7  C    0.133939
     8  C   -0.218172
     9  H    0.121320
    10  H    0.091788
    11  H    0.094433
    12  H    0.129092
    13  H    0.390067
    14  N   -0.639399
    15  C    0.389015
    16  H   -0.085485
    17  H   -0.051854
    18  C    0.327258
    19  H    0.016758
    20  H   -0.029039
    21  N   -0.452431
    22  C   -0.106963
    23  H    0.029147
    24  C    0.871015
    25  O   -0.579977
    26  O   -0.449642
    27  C    0.057481
    28  H    0.072317
    29  H    0.065410
    30  H    0.042683
    31  C    0.832454
    32  O   -0.574489
    33  O   -0.600325
    34  C    0.800776
    35  C   -0.302376
    36  H    0.047102
    37  H    0.073847
    38  H    0.052116
    39  C   -0.357986
    40  H    0.058146
    41  H    0.076021
    42  H    0.097408
    43  C   -0.371685
    44  H    0.068003
    45  H    0.085504
    46  H    0.081330
 Sum of ESP charges =   0.00000

 Summary of Natural Population Analysis:

                                       Natural Population
                Natural  -----------------------------------------------
    Atom  No    Charge         Core      Valence    Rydberg      Total
 -----------------------------------------------------------------------
      C    1    0.15822      1.99899     3.82210    0.02069     5.84178
      C    2   -0.07590      1.99875     4.05904    0.01811     6.07590
      C    3   -0.17667      1.99889     4.16117    0.01660     6.17667
      C    4   -0.23185      1.99921     4.21305    0.01959     6.23185
      C    5   -0.21031      1.99919     4.19273    0.01838     6.21031
      C    6   -0.23517      1.99906     4.21952    0.01659     6.23517
      C    7    0.17646      1.99886     3.80437    0.02030     5.82354
      C    8   -0.11156      1.99883     4.09540    0.01734     6.11156
      H    9    0.20459      0.00000     0.79336    0.00205     0.79541
      H   10    0.20464      0.00000     0.79379    0.00157     0.79536
      H   11    0.20472      0.00000     0.79379    0.00149     0.79528
      H   12    0.20696      0.00000     0.79133    0.00171     0.79304
      H   13    0.40309      0.00000     0.59334    0.00357     0.59691
      N   14   -0.54369      1.99925     5.53005    0.01438     7.54369
      C   15   -0.38696      1.99918     4.37385    0.01393     6.38696
      H   16    0.21491      0.00000     0.78321    0.00189     0.78509
      H   17    0.22645      0.00000     0.77162    0.00193     0.77355
      C   18   -0.19211      1.99915     4.17555    0.01740     6.19211
      H   19    0.23242      0.00000     0.76561    0.00197     0.76758
      H   20    0.20944      0.00000     0.78851    0.00205     0.79056
      N   21   -0.51639      1.99925     5.49507    0.02207     7.51639
      C   22   -0.07262      1.99910     4.04965    0.02387     6.07262
      H   23    0.23299      0.00000     0.76524    0.00177     0.76701
      C   24    0.82612      1.99933     3.12137    0.05318     5.17388
      O   25   -0.60497      1.99973     6.59187    0.01337     8.60497
      O   26   -0.55389      1.99971     6.53763    0.01655     8.55389
      C   27   -0.21547      1.99925     4.20003    0.01619     6.21547
      H   28    0.18671      0.00000     0.81218    0.00111     0.81329
      H   29    0.19042      0.00000     0.80774    0.00183     0.80958
      H   30    0.18410      0.00000     0.81402    0.00189     0.81590
      C   31    0.94974      1.99930     3.00257    0.04839     5.05026
      O   32   -0.66652      1.99974     6.65611    0.01067     8.66652
      O   33   -0.60985      1.99969     6.59020    0.01997     8.60985
      C   34    0.27586      1.99911     3.70244    0.02259     5.72414
      C   35   -0.60542      1.99923     4.59496    0.01123     6.60542
      H   36    0.20524      0.00000     0.79348    0.00128     0.79476
      H   37    0.23329      0.00000     0.76516    0.00155     0.76671
      H   38    0.20369      0.00000     0.79491    0.00140     0.79631
      C   39   -0.60565      1.99923     4.59508    0.01134     6.60565
      H   40    0.20421      0.00000     0.79453    0.00126     0.79579
      H   41    0.20828      0.00000     0.79037    0.00135     0.79172
      H   42    0.23343      0.00000     0.76500    0.00158     0.76657
      C   43   -0.58095      1.99924     4.56984    0.01188     6.58095
      H   44    0.20604      0.00000     0.79279    0.00117     0.79396
      H   45    0.20499      0.00000     0.79356    0.00146     0.79501
      H   46    0.20896      0.00000     0.78959    0.00145     0.79104
 =======================================================================
   * Total *    0.00001     47.98126   127.50678    0.51196   175.99999

                      1                      2                      3
                      A                      A                      A
 Frequencies --     20.7654                30.4852                40.0329
 Red. masses --      4.2673                 4.3077                 3.2658
 Frc consts  --      0.0011                 0.0024                 0.0031
 IR Inten    --      0.4329                 1.9189                 0.3948

                      4                      5                      6
                      A                      A                      A
 Frequencies --     51.3312                53.6848                78.8652
 Red. masses --      4.4611                 4.7570                 4.3885
 Frc consts  --      0.0069                 0.0081                 0.0161
 IR Inten    --      1.7575                 2.4235                 0.4895

                      7                      8                      9
                      A                      A                      A
 Frequencies --     97.1818               119.8780               131.2958
 Red. masses --      3.7655                 3.7618                 1.8509
 Frc consts  --      0.0210                 0.0319                 0.0188
 IR Inten    --      0.1826                 0.5528                 2.7223

                     10                     11                     12
                      A                      A                      A
 Frequencies --    140.3140               151.8467               177.6037
 Red. masses --      2.1437                 3.6731                 3.6495
 Frc consts  --      0.0249                 0.0499                 0.0678
 IR Inten    --      0.8619                 1.0908                 7.8591

                     13                     14                     15
                      A                      A                      A
 Frequencies --    183.0046               205.5838               208.3087
 Red. masses --      3.6499                 3.0929                 1.1511
 Frc consts  --      0.0720                 0.0770                 0.0294
 IR Inten    --      0.7108                 2.6699                 0.0246

                     16                     17                     18
                      A                      A                      A
 Frequencies --    227.4900               233.6392               251.2586
 Red. masses --      3.6804                 4.8155                 1.1303
 Frc consts  --      0.1122                 0.1549                 0.0420
 IR Inten    --      0.8098                 1.8282                 0.3983

                     19                     20                     21
                      A                      A                      A
 Frequencies --    256.4041               271.5401               280.8013
 Red. masses --      3.1654                 1.0786                 3.4117
 Frc consts  --      0.1226                 0.0469                 0.1585
 IR Inten    --      6.0817                 0.0956                 7.7802

                     22                     23                     24
                      A                      A                      A
 Frequencies --    295.6302               326.7056               346.5404
 Red. masses --      4.4694                 3.0856                 2.8242
 Frc consts  --      0.2301                 0.1940                 0.1998
 IR Inten    --      0.3515                 4.8608                30.0158

                     25                     26                     27
                      A                      A                      A
 Frequencies --    349.8854               357.0881               370.7763
 Red. masses --      2.0907                 2.2932                 3.4517
 Frc consts  --      0.1508                 0.1723                 0.2796
 IR Inten    --     11.3926                21.5560                17.1998

                     28                     29                     30
                      A                      A                      A
 Frequencies --    395.0633               430.3921               433.9563
 Red. masses --      4.3078                 2.9288                 2.9871
 Frc consts  --      0.3961                 0.3196                 0.3314
 IR Inten    --     23.8635                 7.4690                 1.0691

                     31                     32                     33
                      A                      A                      A
 Frequencies --    458.3353               481.7198               504.8052
 Red. masses --      2.9247                 2.8056                 3.9800
 Frc consts  --      0.3620                 0.3836                 0.5976
 IR Inten    --      3.3673                 0.9512                14.0622

                     34                     35                     36
                      A                      A                      A
 Frequencies --    557.1928               582.8928               587.3885
 Red. masses --      6.1552                 3.6161                 5.0363
 Frc consts  --      1.1259                 0.7239                 1.0238
 IR Inten    --      0.8468                 1.9171                 8.4306

                     37                     38                     39
                      A                      A                      A
 Frequencies --    604.8049               641.6468               690.3458
 Red. masses --      4.8065                 3.6975                 5.9231
 Frc consts  --      1.0359                 0.8969                 1.6632
 IR Inten    --      7.1690                 3.5228                 3.2264

                     40                     41                     42
                      A                      A                      A
 Frequencies --    711.6101               725.2603               745.7776
 Red. masses --      5.1699                 6.0461                 1.3814
 Frc consts  --      1.5425                 1.8737                 0.4527
 IR Inten    --      5.9345                 1.0848                81.2748

                     43                     44                     45
                      A                      A                      A
 Frequencies --    755.1317               762.7607               770.7703
 Red. masses --      4.0962                 4.2003                 4.5664
 Frc consts  --      1.3762                 1.4398                 1.5983
 IR Inten    --      0.9608                 9.3111                 3.2790

                     46                     47                     48
                      A                      A                      A
 Frequencies --    781.7478               813.9907               828.3324
 Red. masses --      8.2823                 5.2798                 3.8239
 Frc consts  --      2.9822                 2.0611                 1.5459
 IR Inten    --     21.3959                 8.6139                 1.9739

                     49                     50                     51
                      A                      A                      A
 Frequencies --    851.8773               857.5009               870.5921
 Red. masses --      1.4919                 4.0185                 4.3000
 Frc consts  --      0.6379                 1.7410                 1.9202
 IR Inten    --      0.0584                22.4477                 9.0504

                     52                     53                     54
                      A                      A                      A
 Frequencies --    914.3197               925.0609               928.1344
 Red. masses --      3.9532                 1.6437                 1.6579
 Frc consts  --      1.9471                 0.8287                 0.8415
 IR Inten    --     20.5449                 0.0417                 0.2401

                     55                     56                     57
                      A                      A                      A
 Frequencies --    935.2849               951.9236               969.9933
 Red. masses --      1.3686                 4.1682                 1.2006
 Frc consts  --      0.7054                 2.2254                 0.6656
 IR Inten    --      0.8467                 2.6061                 0.0795

                     58                     59                     60
                      A                      A                      A
 Frequencies --    976.6653               977.5805              1007.4211
 Red. masses --      1.5089                 1.5811                 3.3456
 Frc consts  --      0.8480                 0.8903                 2.0006
 IR Inten    --      3.6795                 4.3120                17.3632

                     61                     62                     63
                      A                      A                      A
 Frequencies --   1023.0356              1031.4537              1040.2670
 Red. masses --      4.1351                 2.4228                 2.9963
 Frc consts  --      2.5499                 1.5187                 1.9104
 IR Inten    --     74.4452                 6.5400                20.4046

                     64                     65                     66
                      A                      A                      A
 Frequencies --   1052.0742              1058.0384              1121.4783
 Red. masses --      1.4074                 1.4718                 3.6672
 Frc consts  --      0.9178                 0.9707                 2.7175
 IR Inten    --      0.6224                 4.1925                38.8505

                     67                     68                     69
                      A                      A                      A
 Frequencies --   1133.7209              1163.8154              1173.0580
 Red. masses --      1.9328                 1.9436                 1.2821
 Frc consts  --      1.4637                 1.5510                 1.0395
 IR Inten    --     29.6307                24.2645                 0.6413

                     70                     71                     72
                      A                      A                      A
 Frequencies --   1178.8545              1184.0871              1196.5888
 Red. masses --      1.5415                 1.9750                 1.7773
 Frc consts  --      1.2621                 1.6315                 1.4994
 IR Inten    --    191.1478               371.1108                42.7617

                     73                     74                     75
                      A                      A                      A
 Frequencies --   1199.4760              1217.1958              1223.8202
 Red. masses --      1.9567                 1.9857                 1.6907
 Frc consts  --      1.6587                 1.7333                 1.4919
 IR Inten    --    160.8741               193.6140                33.5616

                     76                     77                     78
                      A                      A                      A
 Frequencies --   1253.1257              1255.5645              1265.2944
 Red. masses --      1.5093                 2.0508                 2.7461
 Frc consts  --      1.3964                 1.9048                 2.5903
 IR Inten    --     74.4173                82.7630                15.6125

                     79                     80                     81
                      A                      A                      A
 Frequencies --   1278.0593              1282.8184              1302.1848
 Red. masses --      2.6028                 2.0143                 1.7235
 Frc consts  --      2.5049                 1.9530                 1.7219
 IR Inten    --     14.5312                23.1815                61.7389

                     82                     83                     84
                      A                      A                      A
 Frequencies --   1315.8802              1355.7274              1362.6051
 Red. masses --      2.2146                 1.5742                 2.4773
 Frc consts  --      2.2593                 1.7047                 2.7100
 IR Inten    --     19.4531                29.8680                26.4876

                     85                     86                     87
                      A                      A                      A
 Frequencies --   1390.5483              1394.0615              1398.8498
 Red. masses --      3.0041                 1.7361                 1.4873
 Frc consts  --      3.4224                 1.9878                 1.7147
 IR Inten    --    285.7638                44.7174                60.0373

                     88                     89                     90
                      A                      A                      A
 Frequencies --   1399.9316              1403.9723              1412.1643
 Red. masses --      1.2711                 1.6498                 2.1616
 Frc consts  --      1.4677                 1.9160                 2.5398
 IR Inten    --     21.7949               132.5648               145.1898

                     91                     92                     93
                      A                      A                      A
 Frequencies --   1427.7657              1470.5905              1470.9172
 Red. masses --      1.2356                 1.0465                 1.2021
 Frc consts  --      1.4840                 1.3334                 1.5323
 IR Inten    --     22.5936                 0.1465                14.8495

                     94                     95                     96
                      A                      A                      A
 Frequencies --   1474.7141              1484.4132              1490.9514
 Red. masses --      2.5947                 1.0442                 1.0473
 Frc consts  --      3.3246                 1.3557                 1.3716
 IR Inten    --     15.6926                 9.5430                 0.6003

                     97                     98                     99
                      A                      A                      A
 Frequencies --   1491.9106              1495.5597              1496.5116
 Red. masses --      1.0512                 1.2053                 1.1061
 Frc consts  --      1.3785                 1.5884                 1.4596
 IR Inten    --      1.6612                 5.2836                10.6186

                    100                    101                    102
                      A                      A                      A
 Frequencies --   1497.4653              1498.0873              1505.6487
 Red. masses --      2.8136                 1.0630                 1.0537
 Frc consts  --      3.7174                 1.4056                 1.4074
 IR Inten    --     20.9481                 9.2469                 2.4710

                    103                    104                    105
                      A                      A                      A
 Frequencies --   1509.6348              1521.3826              1527.8809
 Red. masses --      1.1177                 2.8863                 1.0566
 Frc consts  --      1.5008                 3.9362                 1.4532
 IR Inten    --      0.7206                 2.8332                26.0204

                    106                    107                    108
                      A                      A                      A
 Frequencies --   1604.3383              1632.4788              1663.4229
 Red. masses --      5.9222                 7.2114                 6.2401
 Frc consts  --      8.9810                11.3231                10.1729
 IR Inten    --      2.8122                 1.2221                 2.3439

                    109                    110                    111
                      A                      A                      A
 Frequencies --   1734.9589              1800.0834              2983.5146
 Red. masses --     11.3422                11.1614                 1.0742
 Frc consts  --     20.1153                21.3086                 5.6337
 IR Inten    --    397.8305               205.2228                32.3844

                    112                    113                    114
                      A                      A                      A
 Frequencies --   3005.0765              3032.8332              3034.5690
 Red. masses --      1.0718                 1.0352                 1.0380
 Frc consts  --      5.7024                 5.6099                 5.6315
 IR Inten    --     22.7814                10.8794                23.6884

                    115                    116                    117
                      A                      A                      A
 Frequencies --   3041.8541              3051.0482              3075.5963
 Red. masses --      1.0382                 1.0296                 1.0856
 Frc consts  --      5.6599                 5.6472                 6.0505
 IR Inten    --     27.2242                37.4565                 1.4530

                    118                    119                    120
                      A                      A                      A
 Frequencies --   3089.9725              3093.0196              3096.2402
 Red. masses --      1.0903                 1.1017                 1.1016
 Frc consts  --      6.1334                 6.2099                 6.2223
 IR Inten    --     13.6941                 9.0147                12.9809

                    121                    122                    123
                      A                      A                      A
 Frequencies --   3104.8110              3108.6086              3119.0260
 Red. masses --      1.1023                 1.1018                 1.0874
 Frc consts  --      6.2609                 6.2733                 6.2327
 IR Inten    --     39.0202                48.1733                 6.0654

                    124                    125                    126
                      A                      A                      A
 Frequencies --   3125.0479              3141.0810              3144.0183
 Red. masses --      1.1069                 1.0994                 1.0988
 Frc consts  --      6.3692                 6.3907                 6.3995
 IR Inten    --     17.1973                 0.5815                10.6862

                    127                    128                    129
                      A                      A                      A
 Frequencies --   3156.8917              3161.1235              3167.1834
 Red. masses --      1.1064                 1.0853                 1.0885
 Frc consts  --      6.4965                 6.3899                 6.4331
 IR Inten    --     13.9361                 2.0730                 2.5291

                    130                    131                    132
                      A                      A                      A
 Frequencies --   3177.6555              3189.2868              3665.1431
 Red. masses --      1.0933                 1.0969                 1.0801
 Frc consts  --      6.5046                 6.5734                 8.5482
 IR Inten    --     26.3278                20.7768                60.9537

 - Thermochemistry -
 -------------------
 Temperature   298.150 Kelvin.  Pressure   1.00000 Atm.
 Atom     1 has atomic number  6 and mass  12.00000

 Molecular mass:   330.15796 amu.
 Principal axes and moments of inertia in atomic units:
                           1         2         3
     Eigenvalues --  5216.31961********************
           X            0.99983   0.01870  -0.00024
           Y           -0.01870   0.99982  -0.00244
           Z            0.00019   0.00245   1.00000
 This molecule is an asymmetric top.
 Rotational symmetry number  1.
 Warning -- assumption of classical behavior for rotation
           may cause significant error
 Rotational temperatures (Kelvin)      0.01660     0.00692     0.00522
 Rotational constants (GHZ):           0.34598     0.14415     0.10868
 Zero-point vibrational energy     994804.3 (Joules/Mol)
                                  237.76393 (Kcal/Mol)
 Warning -- explicit consideration of  37 degrees of freedom as
           vibrations may cause significant error
 Vibrational temperatures:     29.88    43.86    57.60    73.85    77.24
          (Kelvin)            113.47   139.82   172.48   188.91   201.88
                              218.47   255.53   263.30   295.79   299.71
                              327.31   336.15   361.50   368.91   390.69
                              404.01   425.35   470.06   498.59   503.41
                              513.77   533.46   568.41   619.24   624.37
                              659.44   693.09   726.30   801.68   838.65
                              845.12   870.18   923.19   993.25  1023.85
                             1043.49  1073.01  1086.46  1097.44  1108.97
                             1124.76  1171.15  1191.78  1225.66  1233.75
                             1252.59  1315.50  1330.95  1335.38  1345.66
                             1369.60  1395.60  1405.20  1406.52  1449.45
                             1471.92  1484.03  1496.71  1513.70  1522.28
                             1613.56  1631.17  1674.47  1687.77  1696.11
                             1703.64  1721.62  1725.78  1751.27  1760.80
                             1802.97  1806.47  1820.47  1838.84  1845.69
                             1873.55  1893.26  1950.59  1960.48  2000.69
                             2005.74  2012.63  2014.19  2020.00  2031.79
                             2054.23  2115.85  2116.32  2121.78  2135.74
                             2145.14  2146.52  2151.77  2153.14  2154.52
                             2155.41  2166.29  2172.03  2188.93  2198.28
                             2308.28  2348.77  2393.29  2496.22  2589.92
                             4292.61  4323.63  4363.57  4366.06  4376.54
                             4389.77  4425.09  4445.78  4450.16  4454.79
                             4467.12  4472.59  4487.58  4496.24  4519.31
                             4523.54  4542.06  4548.15  4556.86  4571.93
                             4588.67  5273.32

 Zero-point correction=                           0.378901 (Hartree/Particle)
 Thermal correction to Energy=                    0.402113
 Thermal correction to Enthalpy=                  0.403058
 Thermal correction to Gibbs Free Energy=         0.325403
 Sum of electronic and zero-point Energies=          -1109.533666
 Sum of electronic and thermal Energies=             -1109.510454
 Sum of electronic and thermal Enthalpies=           -1109.509510
 Sum of electronic and thermal Free Energies=        -1109.587164

                     E (Thermal)             CV                S
                      KCal/Mol        Cal/Mol-Kelvin    Cal/Mol-Kelvin
 Total                  252.330             88.321            163.437
 Electronic               0.000              0.000              0.000
 Translational            0.889              2.981             43.278
 Rotational               0.889              2.981             35.338
 Vibrational            250.553             82.359             84.821
 Vibration     1          0.593              1.986              6.560
 Vibration     2          0.594              1.984              5.798
 Vibration     3          0.594              1.981              5.257
 Vibration     4          0.596              1.977              4.765
 Vibration     5          0.596              1.976              4.677
 Vibration     6          0.600              1.963              3.919
 Vibration     7          0.603              1.951              3.510
 Vibration     8          0.609              1.933              3.102
 Vibration     9          0.612              1.922              2.927
 Vibration    10          0.615              1.913              2.800
 Vibration    11          0.619              1.901              2.649
 Vibration    12          0.628              1.870              2.353
 Vibration    13          0.631              1.863              2.298
 Vibration    14          0.640              1.832              2.083
 Vibration    15          0.642              1.828              2.058
 Vibration    16          0.651              1.799              1.899
 Vibration    17          0.654              1.789              1.851
 Vibration    18          0.663              1.761              1.722
 Vibration    19          0.666              1.752              1.686
 Vibration    20          0.675              1.726              1.586
 Vibration    21          0.680              1.709              1.529
 Vibration    22          0.690              1.682              1.442
 Vibration    23          0.710              1.622              1.276
 Vibration    24          0.725              1.582              1.182
 Vibration    25          0.727              1.575              1.167
 Vibration    26          0.732              1.561              1.135
 Vibration    27          0.743              1.532              1.077
 Vibration    28          0.762              1.481              0.981
 Vibration    29          0.792              1.404              0.857
 Vibration    30          0.795              1.396              0.846
 Vibration    31          0.816              1.342              0.771
 Vibration    32          0.838              1.291              0.705
 Vibration    33          0.860              1.239              0.646
 Vibration    34          0.913              1.124              0.529
 Vibration    35          0.940              1.068              0.480
 Vibration    36          0.945              1.059              0.472
 Vibration    37          0.963              1.022              0.441

 Optimization completed.
    -- Stationary point found.
 Normal termination of Gaussian 09 at Thu Feb 15 10:30:40 2024.
