 Gaussian 09, Revision D.01,
 Gaussian 09:  ES64L-G09RevD.01 24-Apr-2013

 ----------------------------------------------------------------------
 # opt freq=noraman b3lyp/6-311+g(d,p) geom=connectivity pop=(hirshfeld
 ,chelpg,mbs,npa)
 ----------------------------------------------------------------------

 -------------------
 Title Card Required
 -------------------
 Symbolic Z-matrix:
 Charge =  0 Multiplicity = 1

 SCF Done:  E(RB3LYP) =  -784.394828721     A.U. after   15 cycles
 SCF Done:  E(RB3LYP) =  -784.398999262     A.U. after   12 cycles
 SCF Done:  E(RB3LYP) =  -784.399232664     A.U. after   11 cycles
 SCF Done:  E(RB3LYP) =  -784.399262820     A.U. after   11 cycles
 SCF Done:  E(RB3LYP) =  -784.399267443     A.U. after   12 cycles
 SCF Done:  E(RB3LYP) =  -784.399293409     A.U. after   11 cycles
 SCF Done:  E(RB3LYP) =  -784.399337143     A.U. after   12 cycles
 SCF Done:  E(RB3LYP) =  -784.399382255     A.U. after   13 cycles
 SCF Done:  E(RB3LYP) =  -784.399398974     A.U. after   12 cycles
 SCF Done:  E(RB3LYP) =  -784.395631653     A.U. after   16 cycles
 SCF Done:  E(RB3LYP) =  -784.404191766     A.U. after   13 cycles
 SCF Done:  E(RB3LYP) =  -784.404312009     A.U. after   12 cycles
 SCF Done:  E(RB3LYP) =  -784.404314701     A.U. after   12 cycles
 SCF Done:  E(RB3LYP) =  -784.404330586     A.U. after   12 cycles
 SCF Done:  E(RB3LYP) =  -784.404338261     A.U. after   12 cycles
 SCF Done:  E(RB3LYP) =  -784.404337737     A.U. after   12 cycles
 SCF Done:  E(RB3LYP) =  -784.404338308     A.U. after   10 cycles
 SCF Done:  E(RB3LYP) =  -784.404338608     A.U. after   10 cycles
 SCF Done:  E(RB3LYP) =  -784.404338944     A.U. after   10 cycles
 Optimization completed.
    -- Stationary point found.
 Normal termination of Gaussian 09 at Tue Dec 20 17:52:48 2022.

 ----------------------------------------------------------------------
 #N Geom=AllCheck Guess=TCheck SCRF=Check GenChk RB3LYP/6-311+G(d,p) Fr
 eq
 ----------------------------------------------------------------------

 Structure from the checkpoint file:  "MeO_methylthioethercharges.chk"
 -------------------
 Title Card Required
 -------------------
 Charge =  0 Multiplicity = 1

                         Standard orientation:
 ---------------------------------------------------------------------
 Center     Atomic      Atomic             Coordinates (Angstroms)
 Number     Number       Type             X           Y           Z
 ---------------------------------------------------------------------
      1          6           0        0.928800   -1.410605    0.064799
      2          6           0       -0.440825   -1.270640    0.225356
      3          6           0       -1.027216    0.000726    0.309878
      4          6           0       -0.202382    1.122945    0.247179
      5          6           0        1.179505    0.995531    0.091154
      6          6           0        1.749233   -0.276756   -0.004482
      7          1           0        1.389077   -2.389213   -0.001006
      8          1           0       -1.066997   -2.152610    0.293681
      9          1           0       -0.640462    2.111092    0.325381
     10          1           0        1.790221    1.887372    0.049042
     11         16           0       -2.796805    0.182587    0.550780
     12          6           0       -3.395656    0.083118   -1.181570
     13          1           0       -3.144293   -0.880145   -1.626159
     14          1           0       -4.481230    0.185343   -1.138166
     15          1           0       -2.981571    0.893019   -1.782602
     16          8           0        3.081576   -0.518142   -0.159950
     17          6           0        3.971643    0.588136   -0.233669
     18          1           0        4.965353    0.161453   -0.358805
     19          1           0        3.741657    1.229222   -1.091446
     20          1           0        3.945902    1.183475    0.685329
 ---------------------------------------------------------------------

 SCF Done:  E(RB3LYP) =  -784.404338944     A.U. after    1 cycles

 The electronic state is 1-A.
 Alpha  occ. eigenvalues --  -88.84016 -19.16418 -10.24543 -10.23385 -10.20064
 Alpha  occ. eigenvalues --  -10.19290 -10.18665 -10.18530 -10.18305 -10.17894
 Alpha  occ. eigenvalues --   -7.92598  -5.89015  -5.88642  -5.87933  -1.07966
 Alpha  occ. eigenvalues --   -0.86955  -0.79711  -0.76355  -0.74939  -0.70705
 Alpha  occ. eigenvalues --   -0.64193  -0.62322  -0.58497  -0.54578  -0.49710
 Alpha  occ. eigenvalues --   -0.48139  -0.47209  -0.45659  -0.43652  -0.43207
 Alpha  occ. eigenvalues --   -0.42569  -0.42111  -0.39711  -0.37775  -0.37240
 Alpha  occ. eigenvalues --   -0.34086  -0.33822  -0.31421  -0.26705  -0.23500
 Alpha  occ. eigenvalues --   -0.22732
 Alpha virt. eigenvalues --   -0.02392  -0.02011  -0.00273   0.00769   0.01768
 Alpha virt. eigenvalues --    0.01987   0.02903   0.03187   0.04153   0.04452
 Alpha virt. eigenvalues --    0.05155   0.05709   0.06373   0.07163   0.07782

 Mulliken charges:
               1
     1  C   -0.405224
     2  C   -0.367816
     3  C    1.295048
     4  C   -0.854924
     5  C    0.258932
     6  C   -0.412882
     7  H    0.129507
     8  H    0.146710
     9  H    0.147272
    10  H    0.123704
    11  S    0.121216
    12  C   -0.737128
    13  H    0.171513
    14  H    0.173702
    15  H    0.170685
    16  O   -0.177373
    17  C   -0.236064
    18  H    0.160596
    19  H    0.145895
    20  H    0.146629
 Sum of Mulliken charges =   0.00000

 Dipole moment (field-independent basis, Debye):
    X=              1.7972    Y=              1.0281    Z=             -1.5301  Tot=              2.5745
 Quadrupole moment (field-independent basis, Debye-Ang):
   XX=            -60.7379   YY=            -64.3978   ZZ=            -70.4982
   XY=              5.5652   XZ=              4.5083   YZ=             -0.3783

  Exact polarizability: 170.483   1.348 110.170   0.167   0.484  82.473
 Approx polarizability: 229.064  -1.474 185.702  -3.979   1.791 124.724

 ESP charges:
               1
     1  C   -0.339377
     2  C   -0.042017
     3  C    0.159469
     4  C   -0.052233
     5  C   -0.340961
     6  C    0.490687
     7  H    0.154589
     8  H    0.093855
     9  H    0.086344
    10  H    0.158351
    11  S   -0.313238
    12  C    0.047659
    13  H    0.005669
    14  H    0.080042
    15  H    0.001725
    16  O   -0.440557
    17  C    0.238314
    18  H    0.035061
    19  H   -0.011475
    20  H   -0.011905
 Sum of ESP charges =   0.00000

 Summary of Natural Population Analysis:

                                       Natural Population
                Natural  -----------------------------------------------
    Atom  No    Charge         Core      Valence    Rydberg      Total
 -----------------------------------------------------------------------
      C    1   -0.23804      1.99906     4.22128    0.01770     6.23804
      C    2   -0.18477      1.99902     4.16557    0.02018     6.18477
      C    3   -0.21717      1.99879     4.19298    0.02541     6.21717
      C    4   -0.18052      1.99902     4.16051    0.02100     6.18052
      C    5   -0.29114      1.99905     4.27660    0.01549     6.29114
      C    6    0.33000      1.99879     3.64804    0.02317     5.67000
      H    7    0.22127      0.00000     0.77685    0.00188     0.77873
      H    8    0.21625      0.00000     0.78182    0.00192     0.78375
      H    9    0.21630      0.00000     0.78163    0.00206     0.78370
      H   10    0.21360      0.00000     0.78446    0.00194     0.78640
      S   11    0.19759      9.99916     5.75810    0.04516    15.80241
      C   12   -0.69481      1.99927     4.68520    0.01033     6.69481
      H   13    0.20467      0.00000     0.79300    0.00233     0.79533
      H   14    0.21522      0.00000     0.78321    0.00157     0.78478
      H   15    0.20494      0.00000     0.79262    0.00243     0.79506
      O   16   -0.54002      1.99971     6.52219    0.01812     8.54002
      C   17   -0.20841      1.99926     4.19344    0.01571     6.20841
      H   18    0.19322      0.00000     0.80571    0.00107     0.80678
      H   19    0.17064      0.00000     0.82707    0.00229     0.82936
      H   20    0.17118      0.00000     0.82653    0.00228     0.82882
 =======================================================================
   * Total *    0.00000     27.99112    53.77681    0.23207    82.00000

                      1                      2                      3
                      A                      A                      A
 Frequencies --     39.6287                68.2341               110.2822
 Red. masses --      3.2762                 3.4876                 3.7121
 Frc consts  --      0.0030                 0.0096                 0.0266
 IR Inten    --      2.0156                 1.3061                 2.9647

                      4                      5                      6
                      A                      A                      A
 Frequencies --    156.5188               189.1354               205.4280
 Red. masses --      1.0958                 2.5891                 3.4955
 Frc consts  --      0.0158                 0.0546                 0.0869
 IR Inten    --      0.1477                 0.5027                 1.3923

                      7                      8                      9
                      A                      A                      A
 Frequencies --    244.8626               306.2898               347.9864
 Red. masses --      1.2814                 4.4830                 6.2066
 Frc consts  --      0.0453                 0.2478                 0.4428
 IR Inten    --      0.2088                 1.1373                 2.6780

                     10                     11                     12
                      A                      A                      A
 Frequencies --    382.3752               427.6676               497.7911
 Red. masses --      5.8336                 3.0286                 4.1444
 Frc consts  --      0.5025                 0.3264                 0.6051
 IR Inten    --      3.3890                 0.0097                 3.1454

                     13                     14                     15
                      A                      A                      A
 Frequencies --    534.2957               632.4499               648.7520
 Red. masses --      2.4745                 5.9434                 6.9159
 Frc consts  --      0.4162                 1.4007                 1.7150
 IR Inten    --     18.9871                10.3561                 2.9674

                     16                     17                     18
                      A                      A                      A
 Frequencies --    688.2085               726.3395               812.9423
 Red. masses --      6.1880                 3.6942                 5.7195
 Frc consts  --      1.7268                 1.1483                 2.2271
 IR Inten    --      0.2839                 0.2779                 5.6483

                     19                     20                     21
                      A                      A                      A
 Frequencies --    818.7313               843.7354               951.7161
 Red. masses --      1.2921                 1.6072                 1.3080
 Frc consts  --      0.5103                 0.6741                 0.6980
 IR Inten    --     10.1273                49.6553                 0.5169

                     22                     23                     24
                      A                      A                      A
 Frequencies --    970.8049               979.4169               992.8034
 Red. masses --      1.1790                 1.3339                 1.3133
 Frc consts  --      0.6547                 0.7539                 0.7627
 IR Inten    --      1.7110                 0.0376                22.6075

                     25                     26                     27
                      A                      A                      A
 Frequencies --   1022.5109              1056.8658              1106.4384
 Red. masses --      3.2030                 7.6880                 3.1163
 Frc consts  --      1.9731                 5.0595                 2.2477
 IR Inten    --      2.2561                52.5176                 3.0037

                     28                     29                     30
                      A                      A                      A
 Frequencies --   1125.5078              1169.1718              1193.3805
 Red. masses --      1.3355                 1.2739                 1.1637
 Frc consts  --      0.9968                 1.0260                 0.9765
 IR Inten    --      8.8694                 0.6952                36.7156

                     31                     32                     33
                      A                      A                      A
 Frequencies --   1201.9729              1271.8030              1316.3490
 Red. masses --      1.4134                 4.5495                 1.8165
 Frc consts  --      1.2031                 4.3356                 1.8545
 IR Inten    --     13.6856               259.3468                27.9648

                     34                     35                     36
                      A                      A                      A
 Frequencies --   1326.6279              1356.6666              1431.5194
 Red. masses --      2.8159                 1.1556                 2.9576
 Frc consts  --      2.9199                 1.2531                 3.5710
 IR Inten    --     39.2807                 3.4319                 2.4583

                     37                     38                     39
                      A                      A                      A
 Frequencies --   1465.9921              1474.9139              1481.7602
 Red. masses --      1.0570                 1.1898                 1.0536
 Frc consts  --      1.3384                 1.5250                 1.3629
 IR Inten    --     11.4931                11.9752                 9.5912

                     40                     41                     42
                      A                      A                      A
 Frequencies --   1493.9428              1504.3751              1522.3005
 Red. masses --      1.0453                 1.0635                 2.2432
 Frc consts  --      1.3745                 1.4181                 3.0629
 IR Inten    --      9.6488                48.7175               101.9173

                     43                     44                     45
                      A                      A                      A
 Frequencies --   1602.6303              1632.5462              3006.0937
 Red. masses --      6.7198                 5.7579                 1.0345
 Frc consts  --     10.1689                 9.0416                 5.5078
 IR Inten    --     15.0207                92.3731                55.7139

                     46                     47                     48
                      A                      A                      A
 Frequencies --   3038.9614              3065.5345              3124.9324
 Red. masses --      1.0284                 1.1063                 1.1079
 Frc consts  --      5.5959                 6.1252                 6.3745
 IR Inten    --     32.2056                36.6220                 9.7678

                     49                     50                     51
                      A                      A                      A
 Frequencies --   3127.1762              3135.1631              3178.1798
 Red. masses --      1.1045                 1.0992                 1.0880
 Frc consts  --      6.3641                 6.3660                 6.4751
 IR Inten    --     10.6752                21.6098                 3.4085

                     52                     53                     54
                      A                      A                      A
 Frequencies --   3180.8651              3194.6438              3205.9548
 Red. masses --      1.0893                 1.0948                 1.0921
 Frc consts  --      6.4936                 6.5829                 6.6132
 IR Inten    --      3.3523                 5.0546                 8.0078

 - Thermochemistry -
 -------------------
 Temperature   298.150 Kelvin.  Pressure   1.00000 Atm.
 Atom     1 has atomic number  6 and mass  12.00000

 Molecular mass:   154.04524 amu.
 Principal axes and moments of inertia in atomic units:
                           1         2         3
     Eigenvalues --   509.774733387.774803618.77358
           X            0.99983   0.01294   0.01330
           Y           -0.01279   0.99985  -0.01126
           Z           -0.01344   0.01109   0.99985
 This molecule is an asymmetric top.
 Rotational symmetry number  1.
 Warning -- assumption of classical behavior for rotation
           may cause significant error
 Rotational temperatures (Kelvin)      0.16991     0.02557     0.02393
 Rotational constants (GHZ):           3.54027     0.53272     0.49872
 Zero-point vibrational energy     422229.0 (Joules/Mol)
                                  100.91515 (Kcal/Mol)
 Warning -- explicit consideration of  13 degrees of freedom as
           vibrations may cause significant error
 Vibrational temperatures:     57.02    98.17   158.67   225.20   272.12
          (Kelvin)            295.56   352.30   440.68   500.67   550.15
                              615.32   716.21   768.73   909.95   933.41
                              990.18  1045.04  1169.64  1177.97  1213.95
                             1369.31  1396.77  1409.16  1428.42  1471.16
                             1520.59  1591.92  1619.35  1682.18  1717.01
                             1729.37  1829.84  1893.93  1908.72  1951.94
                             2059.63  2109.23  2122.07  2131.92  2149.45
                             2164.46  2190.25  2305.82  2348.87  4325.09
                             4372.38  4410.61  4496.08  4499.30  4510.79
                             4572.69  4576.55  4596.37  4612.65

 Zero-point correction=                           0.160819 (Hartree/Particle)
 Thermal correction to Energy=                    0.171212
 Thermal correction to Enthalpy=                  0.172157
 Thermal correction to Gibbs Free Energy=         0.124025
 Sum of electronic and zero-point Energies=           -784.243520
 Sum of electronic and thermal Energies=              -784.233127
 Sum of electronic and thermal Enthalpies=            -784.232182
 Sum of electronic and thermal Free Energies=         -784.280313

                     E (Thermal)             CV                S
                      KCal/Mol        Cal/Mol-Kelvin    Cal/Mol-Kelvin
 Total                  107.437             37.847            101.300
 Electronic               0.000              0.000              0.000
 Translational            0.889              2.981             41.006
 Rotational               0.889              2.981             30.214
 Vibrational            105.660             31.885             30.080
 Vibration     1          0.594              1.981              5.278
 Vibration     2          0.598              1.969              4.204
 Vibration     3          0.606              1.941              3.264
 Vibration     4          0.620              1.895              2.591
 Vibration     5          0.633              1.855              2.236
 Vibration     6          0.640              1.832              2.084
 Vibration     7          0.660              1.771              1.767
 Vibration     8          0.697              1.662              1.382
 Vibration     9          0.726              1.579              1.175
 Vibration    10          0.752              1.508              1.030
 Vibration    11          0.789              1.410              0.866
 Vibration    12          0.853              1.255              0.664
 Vibration    13          0.889              1.174              0.578

 Optimization completed.
    -- Stationary point found.
 Normal termination of Gaussian 09 at Tue Dec 20 17:55:04 2022.
