 Gaussian 09, Revision D.01,
 Gaussian 09:  ES64L-G09RevD.01 24-Apr-2013

 ----------------------------------------------------------------------
 # opt freq b3lyp/6-311+g(d,p) geom=connectivity pop=(hirshfeld,chelpg,
 mbs,npa)
 ----------------------------------------------------------------------

 -------------------
 Title Card Required
 -------------------
 Symbolic Z-matrix:
 Charge =  0 Multiplicity = 1

 SCF Done:  E(RB3LYP) =  -1485.34797392     A.U. after   12 cycles
 SCF Done:  E(RB3LYP) =  -1485.36092442     A.U. after   11 cycles
 SCF Done:  E(RB3LYP) =  -1485.36223085     A.U. after   10 cycles
 SCF Done:  E(RB3LYP) =  -1485.36271617     A.U. after    9 cycles
 SCF Done:  E(RB3LYP) =  -1485.36305652     A.U. after   11 cycles
 SCF Done:  E(RB3LYP) =  -1485.36311261     A.U. after    9 cycles
 SCF Done:  E(RB3LYP) =  -1485.36313577     A.U. after    9 cycles
 SCF Done:  E(RB3LYP) =  -1485.36313936     A.U. after    8 cycles
 SCF Done:  E(RB3LYP) =  -1485.36313959     A.U. after    7 cycles
 Optimization completed.
    -- Stationary point found.
 Normal termination of Gaussian 09 at Mon Jan  9 17:37:46 2023.

 ----------------------------------------------------------------------
 #N Geom=AllCheck Guess=TCheck SCRF=Check GenChk RB3LYP/6-311+G(d,p) Fr
 eq
 ----------------------------------------------------------------------

 Structure from the checkpoint file:  "methylchlorosilanes9_Suginome.chk"
 -------------------
 Title Card Required
 -------------------
 Charge =  0 Multiplicity = 1

                         Standard orientation:
 ---------------------------------------------------------------------
 Center     Atomic      Atomic             Coordinates (Angstroms)
 Number     Number       Type             X           Y           Z
 ---------------------------------------------------------------------
      1         14           0       -1.174078    0.000016    0.240116
      2         17           0       -2.115598    1.678440   -0.576411
      3          6           0       -1.481796   -0.000050    2.080165
      4          1           0       -2.554017   -0.000382    2.287607
      5          1           0       -1.043396    0.887867    2.543506
      6          1           0       -1.042800   -0.887535    2.543757
      7         17           0       -2.114522   -1.678862   -0.576796
      8          6           0        0.632328    0.000234   -0.294391
      9          6           0        1.383369    1.273045    0.165022
     10          6           0        1.383237   -1.272517    0.165753
     11          1           0        0.606934   -0.000183   -1.393596
     12          6           0        2.845731    1.267040   -0.308736
     13          1           0        1.368409    1.332231    1.261638
     14          1           0        0.878071    2.169879   -0.204265
     15          6           0        2.845580   -1.266948   -0.308106
     16          1           0        1.368341   -1.330964    1.262393
     17          1           0        0.877803   -2.169486   -0.203022
     18          6           0        3.585166    0.000108    0.139908
     19          1           0        3.358036    2.159337    0.065693
     20          1           0        2.866434    1.331398   -1.404104
     21          1           0        3.357786   -2.159120    0.066763
     22          1           0        2.866235   -1.331873   -1.403441
     23          1           0        4.607229   -0.000058   -0.252215
     24          1           0        3.672374    0.000375    1.234497
 ---------------------------------------------------------------------

 SCF Done:  E(RB3LYP) =  -1485.36313959     A.U. after    1 cycles

 The electronic state is 1-A.
 Alpha  occ. eigenvalues -- -101.54139-101.54138 -66.16642 -10.18243 -10.18119
 Alpha  occ. eigenvalues --  -10.18117 -10.17386 -10.17368 -10.17368 -10.17210
 Alpha  occ. eigenvalues --   -9.45685  -9.45684  -7.21886  -7.21885  -7.21284
 Alpha  occ. eigenvalues --   -7.21283  -7.21270  -7.21269  -5.33404  -3.69486
 Alpha  occ. eigenvalues --   -3.69266  -3.68915  -0.84813  -0.83531  -0.81541
 Alpha  occ. eigenvalues --   -0.75430  -0.75422  -0.71873  -0.62228  -0.62193
 Alpha  occ. eigenvalues --   -0.56669  -0.51674  -0.48232  -0.45461  -0.45189
 Alpha  occ. eigenvalues --   -0.44703  -0.43771  -0.42266  -0.40147  -0.39213
 Alpha  occ. eigenvalues --   -0.38597  -0.38295  -0.38221  -0.35659  -0.35357
 Alpha  occ. eigenvalues --   -0.33833  -0.32978  -0.32609  -0.32543  -0.31753
 Alpha  occ. eigenvalues --   -0.31349  -0.28800
 Alpha virt. eigenvalues --   -0.01381   0.00366   0.00710   0.01258   0.01667
 Alpha virt. eigenvalues --    0.01869   0.03148   0.03885   0.04240   0.04395
 Alpha virt. eigenvalues --    0.05246   0.06142   0.06291   0.06511   0.07325

 Mulliken charges:
               1
     1  Si   0.429671
     2  Cl  -0.087522
     3  C   -0.728216
     4  H    0.195007
     5  H    0.183268
     6  H    0.183270
     7  Cl  -0.087592
     8  C    0.072168
     9  C   -0.388436
    10  C   -0.388371
    11  H    0.188641
    12  C   -0.373845
    13  H    0.152077
    14  H    0.170257
    15  C   -0.373832
    16  H    0.152080
    17  H    0.170255
    18  C   -0.351433
    19  H    0.149424
    20  H    0.148050
    21  H    0.149425
    22  H    0.148050
    23  H    0.146541
    24  H    0.141062
 Sum of Mulliken charges =   0.00000

 Dipole moment (field-independent basis, Debye):
    X=              2.6978    Y=              0.0005    Z=              1.6985  Tot=              3.1880
 Quadrupole moment (field-independent basis, Debye-Ang):
   XX=            -88.6451   YY=            -88.3873   ZZ=            -83.1840
   XY=              0.0003   XZ=             -3.5599   YZ=             -0.0006

  Exact polarizability: 142.422  -0.005 127.950   0.581   0.001 112.761
 Approx polarizability: 175.845  -0.011 186.564   5.292   0.005 171.644

 ESP charges:
               1
     1  Si   0.476309
     2  Cl  -0.233854
     3  C   -0.293617
     4  H    0.093634
     5  H    0.073082
     6  H    0.073120
     7  Cl  -0.233911
     8  C   -0.003487
     9  C    0.098993
    10  C    0.096082
    11  H   -0.011855
    12  C   -0.009892
    13  H   -0.022179
    14  H   -0.037563
    15  C   -0.008479
    16  H   -0.021585
    17  H   -0.036639
    18  C    0.046236
    19  H   -0.005152
    20  H   -0.000369
    21  H   -0.005457
    22  H   -0.000458
    23  H   -0.011691
    24  H   -0.021269
 Sum of ESP charges =   0.00000

 Summary of Natural Population Analysis:

                                       Natural Population
                Natural  -----------------------------------------------
    Atom  No    Charge         Core      Valence    Rydberg      Total
 -----------------------------------------------------------------------
     Si    1    1.52188      9.99803     2.40354    0.07655    12.47812
     Cl    2   -0.36376      9.99965     7.35457    0.00954    17.36376
      C    3   -1.11083      1.99927     5.09825    0.01331     7.11083
      H    4    0.24915      0.00000     0.74962    0.00123     0.75085
      H    5    0.24117      0.00000     0.75755    0.00128     0.75883
      H    6    0.24117      0.00000     0.75755    0.00128     0.75883
     Cl    7   -0.36379      9.99965     7.35460    0.00954    17.36379
      C    8   -0.70573      1.99912     4.68134    0.02527     6.70573
      C    9   -0.38904      1.99927     4.37239    0.01738     6.38904
      C   10   -0.38905      1.99927     4.37240    0.01737     6.38905
      H   11    0.23195      0.00000     0.76565    0.00240     0.76805
      C   12   -0.38105      1.99929     4.36528    0.01648     6.38105
      H   13    0.18961      0.00000     0.80827    0.00212     0.81039
      H   14    0.21383      0.00000     0.78478    0.00140     0.78617
      C   15   -0.38105      1.99929     4.36528    0.01648     6.38105
      H   16    0.18961      0.00000     0.80828    0.00212     0.81039
      H   17    0.21384      0.00000     0.78476    0.00140     0.78616
      C   18   -0.38562      1.99929     4.37114    0.01519     6.38562
      H   19    0.20251      0.00000     0.79588    0.00162     0.79749
      H   20    0.19115      0.00000     0.80646    0.00239     0.80885
      H   21    0.20251      0.00000     0.79588    0.00162     0.79749
      H   22    0.19116      0.00000     0.80646    0.00239     0.80884
      H   23    0.20227      0.00000     0.79625    0.00148     0.79773
      H   24    0.18810      0.00000     0.80962    0.00228     0.81190
 =======================================================================
   * Total *    0.00000     43.99212    59.76579    0.24209   104.00000

                      1                      2                      3
                      A                      A                      A
 Frequencies --     40.1902                82.5946                90.2404
 Red. masses --      3.3990                 3.3995                 8.1847
 Frc consts  --      0.0032                 0.0137                 0.0393
 IR Inten    --      0.1493                 1.5272                 0.2892

                      4                      5                      6
                      A                      A                      A
 Frequencies --    152.0212               164.7814               184.3946
 Red. masses --      5.7779                 1.1141                 3.5087
 Frc consts  --      0.0787                 0.0178                 0.0703
 IR Inten    --      2.0057                 0.0533                 2.5551

                      7                      8                      9
                      A                      A                      A
 Frequencies --    184.5479               205.9637               228.5249
 Red. masses --      2.5406                 5.3283                 1.9511
 Frc consts  --      0.0510                 0.1332                 0.0600
 IR Inten    --      0.2859                 4.9119                 0.0824

                     10                     11                     12
                      A                      A                      A
 Frequencies --    272.0355               309.5277               337.9603
 Red. masses --      3.9821                 3.9133                 2.2201
 Frc consts  --      0.1736                 0.2209                 0.1494
 IR Inten    --      0.1332                 3.0611                 5.5882

                     13                     14                     15
                      A                      A                      A
 Frequencies --    420.8252               438.6674               474.9391
 Red. masses --      2.4178                 2.9850                 3.0983
 Frc consts  --      0.2523                 0.3384                 0.4118
 IR Inten    --      4.1952                 0.5116                43.4916

                     16                     17                     18
                      A                      A                      A
 Frequencies --    520.3579               535.1378               687.8767
 Red. masses --      2.2470                10.8444                 3.3547
 Frc consts  --      0.3585                 1.8297                 0.9352
 IR Inten    --     38.5399               140.5170                29.7479

                     19                     20                     21
                      A                      A                      A
 Frequencies --    764.8988               793.6375               811.9297
 Red. masses --      3.0935                 1.4757                 1.7881
 Frc consts  --      1.0664                 0.5477                 0.6945
 IR Inten    --     30.7423                 0.1699                24.6765

                     22                     23                     24
                      A                      A                      A
 Frequencies --    817.3763               829.9743               858.0881
 Red. masses --      1.3823                 2.2699                 1.6915
 Frc consts  --      0.5441                 0.9213                 0.7338
 IR Inten    --     60.4166                44.3457                15.2544

                     25                     26                     27
                      A                      A                      A
 Frequencies --    892.1032               892.5563               922.7231
 Red. masses --      2.0557                 2.2476                 1.4978
 Frc consts  --      0.9639                 1.0550                 0.7514
 IR Inten    --      0.3690                27.2213                 4.7258

                     28                     29                     30
                      A                      A                      A
 Frequencies --   1015.9079              1036.0477              1044.6827
 Red. masses --      1.9463                 1.9415                 1.9963
 Frc consts  --      1.1835                 1.2279                 1.2836
 IR Inten    --     10.4834                 0.9981                 5.2949

                     31                     32                     33
                      A                      A                      A
 Frequencies --   1087.7956              1092.5257              1126.2533
 Red. masses --      2.6128                 1.0722                 2.0406
 Frc consts  --      1.8216                 0.7540                 1.5250
 IR Inten    --      0.3954                 1.3492                12.9205

                     34                     35                     36
                      A                      A                      A
 Frequencies --   1194.4665              1223.3089              1286.0250
 Red. masses --      1.2883                 1.5019                 1.3132
 Frc consts  --      1.0829                 1.3242                 1.2797
 IR Inten    --      3.8065                 4.0221                 0.3875

                     37                     38                     39
                      A                      A                      A
 Frequencies --   1297.1658              1301.8359              1305.6801
 Red. masses --      1.2578                 1.2346                 1.2520
 Frc consts  --      1.2469                 1.2328                 1.2575
 IR Inten    --      2.9399                 6.1752                28.2857

                     40                     41                     42
                      A                      A                      A
 Frequencies --   1325.1790              1359.2115              1367.7343
 Red. masses --      1.1707                 1.3000                 1.3169
 Frc consts  --      1.2113                 1.4150                 1.4515
 IR Inten    --      1.9265                 0.7751                 0.0152

                     43                     44                     45
                      A                      A                      A
 Frequencies --   1377.2055              1379.7057              1389.5659
 Red. masses --      1.4020                 1.4824                 1.4051
 Frc consts  --      1.5668                 1.6626                 1.5985
 IR Inten    --      1.1654                 0.0040                 1.4423

                     46                     47                     48
                      A                      A                      A
 Frequencies --   1451.1580              1458.1572              1484.2065
 Red. masses --      1.0483                 1.0490                 1.0865
 Frc consts  --      1.3007                 1.3142                 1.4101
 IR Inten    --      2.9130                 4.8277                 0.3806

                     49                     50                     51
                      A                      A                      A
 Frequencies --   1487.3242              1488.3257              1493.1105
 Red. masses --      1.0897                 1.0928                 1.0827
 Frc consts  --      1.4202                 1.4262                 1.4222
 IR Inten    --      5.1534                 3.9756                13.2436

                     52                     53                     54
                      A                      A                      A
 Frequencies --   1506.9113              2988.2470              2995.2543
 Red. masses --      1.0960                 1.0769                 1.0695
 Frc consts  --      1.4663                 5.6660                 5.6532
 IR Inten    --      1.2121                 3.2188                14.7881

                     55                     56                     57
                      A                      A                      A
 Frequencies --   2998.9906              3004.6545              3006.9855
 Red. masses --      1.0714                 1.0699                 1.0622
 Frc consts  --      5.6776                 5.6912                 5.6588
 IR Inten    --     15.3733                 2.8997                11.1567

                     58                     59                     60
                      A                      A                      A
 Frequencies --   3010.6306              3034.3528              3049.8565
 Red. masses --      1.0620                 1.0343                 1.0983
 Frc consts  --      5.6714                 5.6106                 6.0190
 IR Inten    --     71.4492                 1.4601                51.3307

                     61                     62                     63
                      A                      A                      A
 Frequencies --   3050.2844              3055.1274              3063.1307
 Red. masses --      1.0908                 1.1013                 1.0948
 Frc consts  --      5.9798                 6.0565                 6.0525
 IR Inten    --     69.5079                50.1130                27.2813

                     64                     65                     66
                      A                      A                      A
 Frequencies --   3064.7806              3108.9013              3117.5687
 Red. masses --      1.0972                 1.1008                 1.1008
 Frc consts  --      6.0721                 6.2685                 6.3036
 IR Inten    --     38.9748                 4.5658                 2.9328

 - Thermochemistry -
 -------------------
 Temperature   298.150 Kelvin.  Pressure   1.00000 Atm.
 Atom     1 has atomic number 14 and mass  27.97693

 Molecular mass:   196.02418 amu.
 Principal axes and moments of inertia in atomic units:
                           1         2         3
     Eigenvalues --  1470.186623472.796064160.27625
           X            0.99982   0.00001  -0.01917
           Y           -0.00001   1.00000  -0.00003
           Z            0.01917   0.00003   0.99982
 This molecule is an asymmetric top.
 Rotational symmetry number  1.
 Warning -- assumption of classical behavior for rotation
           may cause significant error
 Rotational temperatures (Kelvin)      0.05891     0.02494     0.02082
 Rotational constants (GHZ):           1.22756     0.51968     0.43380
 Zero-point vibrational energy     526608.9 (Joules/Mol)
                                  125.86254 (Kcal/Mol)
 Warning -- explicit consideration of  17 degrees of freedom as
           vibrations may cause significant error
 Vibrational temperatures:     57.82   118.84   129.84   218.72   237.08
          (Kelvin)            265.30   265.52   296.34   328.80   391.40
                              445.34   486.25   605.47   631.14   683.33
                              748.68   769.94   989.70  1100.52  1141.87
                             1168.18  1176.02  1194.15  1234.60  1283.54
                             1284.19  1327.59  1461.66  1490.64  1503.06
                             1565.09  1571.90  1620.43  1718.57  1760.07
                             1850.30  1866.33  1873.05  1878.58  1906.63
                             1955.60  1967.86  1981.49  1985.09  1999.27
                             2087.89  2097.96  2135.44  2139.93  2141.37
                             2148.25  2168.11  4299.42  4309.50  4314.87
                             4323.02  4326.38  4331.62  4365.75  4388.06
                             4388.67  4395.64  4407.16  4409.53  4473.01
                             4485.48

 Zero-point correction=                           0.200575 (Hartree/Particle)
 Thermal correction to Energy=                    0.212805
 Thermal correction to Enthalpy=                  0.213750
 Thermal correction to Gibbs Free Energy=         0.161425
 Sum of electronic and zero-point Energies=          -1485.162565
 Sum of electronic and thermal Energies=             -1485.150334
 Sum of electronic and thermal Enthalpies=           -1485.149390
 Sum of electronic and thermal Free Energies=        -1485.201714

                     E (Thermal)             CV                S
                      KCal/Mol        Cal/Mol-Kelvin    Cal/Mol-Kelvin
 Total                  133.537             44.740            110.126
 Electronic               0.000              0.000              0.000
 Translational            0.889              2.981             41.724
 Rotational               0.889              2.981             31.430
 Vibrational            131.760             38.778             36.972
 Vibration     1          0.594              1.981              5.250
 Vibration     2          0.600              1.961              3.828
 Vibration     3          0.602              1.956              3.655
 Vibration     4          0.619              1.900              2.647
 Vibration     5          0.623              1.886              2.494
 Vibration     6          0.631              1.861              2.283
 Vibration     7          0.631              1.861              2.282
 Vibration     8          0.640              1.831              2.079
 Vibration     9          0.651              1.797              1.891
 Vibration    10          0.675              1.725              1.583
 Vibration    11          0.699              1.656              1.365
 Vibration    12          0.718              1.600              1.222
 Vibration    13          0.783              1.425              0.889
 Vibration    14          0.799              1.386              0.831
 Vibration    15          0.832              1.306              0.724
 Vibration    16          0.875              1.205              0.609
 Vibration    17          0.890              1.172              0.576

 Optimization completed.
    -- Stationary point found.
 Normal termination of Gaussian 09 at Mon Jan  9 17:41:24 2023.
