 Gaussian 09, Revision D.01,
 Gaussian 09:  ES64L-G09RevD.01 24-Apr-2013

 ----------------------------------------------------------------------
 # opt freq=noraman b3lyp/6-311+g(d,p) pop=(npa,hirshfeld,chelpg,mbs) g
 eom=connectivity
 ----------------------------------------------------------------------

 -------------------
 Title Card Required
 -------------------
 Symbolic Z-matrix:
 Charge =  0 Multiplicity = 1

 SCF Done:  E(RB3LYP) =  -422.105882060     A.U. after   14 cycles
 SCF Done:  E(RB3LYP) =  -422.114625220     A.U. after   13 cycles
 SCF Done:  E(RB3LYP) =  -422.115242837     A.U. after   11 cycles
 SCF Done:  E(RB3LYP) =  -422.115326537     A.U. after   11 cycles
 SCF Done:  E(RB3LYP) =  -422.115083128     A.U. after   12 cycles
 SCF Done:  E(RB3LYP) =  -422.115331445     A.U. after   12 cycles
 SCF Done:  E(RB3LYP) =  -422.115331825     A.U. after    9 cycles
 SCF Done:  E(RB3LYP) =  -422.115331829     A.U. after    9 cycles
 SCF Done:  E(RB3LYP) =  -422.115331905     A.U. after    9 cycles
 Optimization completed.
    -- Stationary point found.
 Normal termination of Gaussian 09 at Thu Feb  2 15:30:09 2023.

 ----------------------------------------------------------------------
 #N Geom=AllCheck Guess=TCheck SCRF=Check GenChk RB3LYP/6-311+G(d,p) Fr
 eq
 ----------------------------------------------------------------------

 Structure from the checkpoint file:  "regiodevergent1b_Ishiyana.chk"
 -------------------
 Title Card Required
 -------------------
 Charge =  0 Multiplicity = 1

                         Standard orientation:
 ---------------------------------------------------------------------
 Center     Atomic      Atomic             Coordinates (Angstroms)
 Number     Number       Type             X           Y           Z
 ---------------------------------------------------------------------
      1          6           0        1.792419   -0.002271    0.000034
      2          6           0        1.504180    1.336329   -0.000084
      3          6           0        0.085373    1.440686   -0.000116
      4          6           0       -0.404999    0.159597   -0.000040
      5          8           0        0.644583   -0.721862   -0.000015
      6          1           0        2.221918    2.141370   -0.000119
      7          1           0       -0.499874    2.346711   -0.000177
      8          6           0        3.065198   -0.768540    0.000117
      9          1           0        3.134720   -1.411082    0.882709
     10          1           0        3.134790   -1.411158   -0.882416
     11          1           0        3.914101   -0.084123    0.000120
     12          6           0       -1.764680   -0.392247   -0.000014
     13          8           0       -1.970852   -1.592101   -0.000155
     14          6           0       -2.901553    0.615953    0.000190
     15          1           0       -2.852404    1.259191    0.883476
     16          1           0       -2.852541    1.259391   -0.882959
     17          1           0       -3.846177    0.074365    0.000204
 ---------------------------------------------------------------------

 SCF Done:  E(RB3LYP) =  -422.115331905     A.U. after    1 cycles

 The electronic state is 1-A.
 Alpha  occ. eigenvalues --  -19.20061 -19.10898 -10.26661 -10.25183 -10.23572
 Alpha  occ. eigenvalues --  -10.19728 -10.19127 -10.18654 -10.17756  -1.13078
 Alpha  occ. eigenvalues --   -1.04217  -0.82437  -0.80774  -0.75620  -0.70823
 Alpha  occ. eigenvalues --   -0.62846  -0.59844  -0.56702  -0.50014  -0.48581
 Alpha  occ. eigenvalues --   -0.46451  -0.44758  -0.44699  -0.43521  -0.41867
 Alpha  occ. eigenvalues --   -0.41637  -0.40795  -0.39804  -0.38402  -0.36424
 Alpha  occ. eigenvalues --   -0.30255  -0.25886  -0.24466
 Alpha virt. eigenvalues --   -0.06340  -0.00474   0.00636   0.01555   0.02273
 Alpha virt. eigenvalues --    0.03848   0.04013   0.04173   0.05758   0.05817
 Alpha virt. eigenvalues --    0.06274   0.07063   0.07165   0.08014   0.08400

 Mulliken charges:
               1
     1  C    0.183958
     2  C   -0.414338
     3  C   -0.299548
     4  C    0.314791
     5  O   -0.031891
     6  H    0.127472
     7  H    0.136681
     8  C   -0.285394
     9  H    0.164721
    10  H    0.164724
    11  H    0.154210
    12  C   -0.011565
    13  O   -0.281661
    14  C   -0.411409
    15  H    0.157018
    16  H    0.157008
    17  H    0.175222
 Sum of Mulliken charges =   0.00000

 Dipole moment (field-independent basis, Debye):
    X=              2.2486    Y=              3.6385    Z=              0.0004  Tot=              4.2773
 Quadrupole moment (field-independent basis, Debye-Ang):
   XX=            -45.9308   YY=            -56.0359   ZZ=            -54.1797
   XY=             -7.1788   XZ=             -0.0006   YZ=             -0.0010

  Exact polarizability: 123.085   3.534  93.391   0.000   0.000  56.261
 Approx polarizability: 162.273  16.497 160.301   0.002   0.000  83.987

 ESP charges:
               1
     1  C    0.362151
     2  C   -0.264402
     3  C   -0.144091
     4  C   -0.020397
     5  O   -0.201149
     6  H    0.139381
     7  H    0.144620
     8  C   -0.402704
     9  H    0.131047
    10  H    0.131073
    11  H    0.117042
    12  C    0.595515
    13  O   -0.537176
    14  C   -0.248005
    15  H    0.052345
    16  H    0.052367
    17  H    0.092383
 Sum of ESP charges =   0.00000

 Summary of Natural Population Analysis:

                                       Natural Population
                Natural  -----------------------------------------------
    Atom  No    Charge         Core      Valence    Rydberg      Total
 -----------------------------------------------------------------------
      C    1    0.34768      1.99902     3.62810    0.02520     5.65232
      C    2   -0.31379      1.99903     4.29883    0.01593     6.31379
      C    3   -0.23319      1.99908     4.21961    0.01451     6.23319
      C    4    0.18149      1.99884     3.79322    0.02644     5.81851
      O    5   -0.44441      1.99969     6.42790    0.01682     8.44441
      H    6    0.22508      0.00000     0.77351    0.00141     0.77492
      H    7    0.22501      0.00000     0.77349    0.00150     0.77499
      C    8   -0.61974      1.99928     4.61137    0.00909     6.61974
      H    9    0.22608      0.00000     0.77224    0.00168     0.77392
      H   10    0.22608      0.00000     0.77224    0.00168     0.77392
      H   11    0.21913      0.00000     0.77980    0.00107     0.78087
      C   12    0.50044      1.99927     3.46166    0.03863     5.49956
      O   13   -0.54455      1.99976     6.53067    0.01412     8.54455
      C   14   -0.66201      1.99930     4.65479    0.00792     6.66201
      H   15    0.21897      0.00000     0.77936    0.00167     0.78103
      H   16    0.21897      0.00000     0.77937    0.00166     0.78103
      H   17    0.22877      0.00000     0.76918    0.00206     0.77123
 =======================================================================
   * Total *    0.00000     17.99327    47.82535    0.18138    66.00000

                      1                      2                      3
                      A                      A                      A
 Frequencies --     32.4808                84.7509               114.8100
 Red. masses --      1.1843                 2.3505                 1.1372
 Frc consts  --      0.0007                 0.0099                 0.0088
 IR Inten    --      0.8230                 2.8293                 0.0491

                      4                      5                      6
                      A                      A                      A
 Frequencies --    144.2929               161.3496               269.4191
 Red. masses --      4.4134                 4.1046                 3.3512
 Frc consts  --      0.0541                 0.0630                 0.1433
 IR Inten    --      1.0795                 5.2453                 2.8235

                      7                      8                      9
                      A                      A                      A
 Frequencies --    314.9316               389.8814               514.1193
 Red. masses --      2.8033                 4.3973                 4.6207
 Frc consts  --      0.1638                 0.3938                 0.7196
 IR Inten    --      0.0930                 1.8665                 1.7941

                     10                     11                     12
                      A                      A                      A
 Frequencies --    551.2155               610.5272               634.7199
 Red. masses --      3.2340                 3.6675                 3.3400
 Frc consts  --      0.5789                 0.8054                 0.7928
 IR Inten    --      1.2880                23.9794                 0.1382

                     13                     14                     15
                      A                      A                      A
 Frequencies --    684.7976               685.0876               805.9083
 Red. masses --      4.2910                 4.3769                 1.2075
 Frc consts  --      1.1856                 1.2103                 0.4621
 IR Inten    --      1.4719                 3.4786                48.5417

                     16                     17                     18
                      A                      A                      A
 Frequencies --    880.4035               931.5682               961.4090
 Red. masses --      1.3532                 3.3619                 2.5915
 Frc consts  --      0.6180                 1.7189                 1.4113
 IR Inten    --      0.9054                32.3176                 9.8316

                     19                     20                     21
                      A                      A                      A
 Frequencies --    997.4619              1014.1643              1038.4780
 Red. masses --      4.2338                 1.6256                 1.7930
 Frc consts  --      2.4818                 0.9851                 1.1393
 IR Inten    --      5.8638                21.7022                 2.2210

                     22                     23                     24
                      A                      A                      A
 Frequencies --   1045.8418              1061.5673              1127.1657
 Red. masses --      1.3544                 1.5075                 3.1300
 Frc consts  --      0.8728                 1.0009                 2.3430
 IR Inten    --     43.1192                 2.0367                44.2624

                     25                     26                     27
                      A                      A                      A
 Frequencies --   1229.2362              1242.1411              1313.6929
 Red. masses --      1.5492                 5.0976                 4.8078
 Frc consts  --      1.3792                 4.6340                 4.8886
 IR Inten    --     18.6721                21.0514                92.4938

                     28                     29                     30
                      A                      A                      A
 Frequencies --   1383.3257              1401.3537              1418.1115
 Red. masses --      1.4396                 2.5323                 1.3565
 Frc consts  --      1.6231                 2.9299                 1.6073
 IR Inten    --     27.2975                41.6980                 0.6507

                     31                     32                     33
                      A                      A                      A
 Frequencies --   1471.2788              1473.4066              1477.7473
 Red. masses --      1.0563                 1.0413                 1.0465
 Frc consts  --      1.3472                 1.3319                 1.3465
 IR Inten    --     12.4453                 9.4945                11.0009

                     34                     35                     36
                      A                      A                      A
 Frequencies --   1488.6988              1544.3890              1618.4646
 Red. masses --      1.1563                 6.6457                 5.5984
 Frc consts  --      1.5099                 9.3391                 8.6402
 IR Inten    --     12.6062               181.1707                 7.8679

                     37                     38                     39
                      A                      A                      A
 Frequencies --   1736.1982              3032.0271              3034.3990
 Red. masses --     10.7509                 1.0373                 1.0371
 Frc consts  --     19.0939                 5.6183                 5.6260
 IR Inten    --    309.1992                17.8345                 3.9939

                     40                     41                     42
                      A                      A                      A
 Frequencies --   3082.3089              3093.1593              3123.8990
 Red. masses --      1.1007                 1.0999                 1.0999
 Frc consts  --      6.1614                 6.2000                 6.3242
 IR Inten    --      8.3073                 8.6812                 9.1032

                     43                     44                     45
                      A                      A                      A
 Frequencies --   3142.4904              3241.4850              3254.3382
 Red. masses --      1.1012                 1.0933                 1.1018
 Frc consts  --      6.4073                 6.7681                 6.8751
 IR Inten    --      9.1224                 4.1813                 0.1672

 - Thermochemistry -
 -------------------
 Temperature   298.150 Kelvin.  Pressure   1.00000 Atm.
 Atom     1 has atomic number  6 and mass  12.00000

 Molecular mass:   124.05243 amu.
 Principal axes and moments of inertia in atomic units:
                           1         2         3
     Eigenvalues --   460.346361653.599742091.50282
           X            0.99926  -0.03854   0.00000
           Y            0.03854   0.99926   0.00000
           Z            0.00000   0.00000   1.00000
 This molecule is an asymmetric top.
 Rotational symmetry number  1.
 Warning -- assumption of classical behavior for rotation
           may cause significant error
 Rotational temperatures (Kelvin)      0.18815     0.05238     0.04141
 Rotational constants (GHZ):           3.92040     1.09140     0.86289
 Zero-point vibrational energy     352052.0 (Joules/Mol)
                                   84.14245 (Kcal/Mol)
 Warning -- explicit consideration of  11 degrees of freedom as
           vibrations may cause significant error
 Vibrational temperatures:     46.73   121.94   165.19   207.61   232.15
          (Kelvin)            387.63   453.12   560.95   739.70   793.08
                              878.41   913.22   985.27   985.69  1159.52
                             1266.70  1340.32  1383.25  1435.12  1459.15
                             1494.14  1504.73  1527.36  1621.74  1768.59
                             1787.16  1890.11  1990.29  2016.23  2040.34
                             2116.84  2119.90  2126.15  2141.90  2222.03
                             2328.61  2498.00  4362.41  4365.82  4434.75
                             4450.36  4494.59  4521.34  4663.77  4682.26

 Zero-point correction=                           0.134090 (Hartree/Particle)
 Thermal correction to Energy=                    0.143164
 Thermal correction to Enthalpy=                  0.144108
 Thermal correction to Gibbs Free Energy=         0.098976
 Sum of electronic and zero-point Energies=           -421.981242
 Sum of electronic and thermal Energies=              -421.972168
 Sum of electronic and thermal Enthalpies=            -421.971224
 Sum of electronic and thermal Free Energies=         -422.016356

                     E (Thermal)             CV                S
                      KCal/Mol        Cal/Mol-Kelvin    Cal/Mol-Kelvin
 Total                   89.837             31.871             94.988
 Electronic               0.000              0.000              0.000
 Translational            0.889              2.981             40.361
 Rotational               0.889              2.981             28.856
 Vibrational             88.059             25.909             25.771
 Vibration     1          0.594              1.983              5.672
 Vibration     2          0.601              1.960              3.778
 Vibration     3          0.608              1.937              3.186
 Vibration     4          0.616              1.909              2.746
 Vibration     5          0.622              1.890              2.534
 Vibration     6          0.674              1.729              1.600
 Vibration     7          0.702              1.645              1.336
 Vibration     8          0.758              1.492              1.001
 Vibration     9          0.869              1.219              0.624
 Vibration    10          0.907              1.137              0.542
 Vibration    11          0.970              1.010              0.432

 Optimization completed.
    -- Stationary point found.
 Normal termination of Gaussian 09 at Thu Feb  2 15:31:24 2023.
